# Data file LAMMPS

3679 atoms
1666 bonds
833 angles

9 atom types
1 bond types
1 angle types

# System 
 
-12.124355653 12.124355653 xlo xhi 
-12.6 12.6 ylo yhi 
-15.022 80 zlo zhi 

Masses 
 
1 12.01
2 12.01
3 12.01
4 12.01
5 12.01
6 12.01
7 12.01
8 15.9994
9 1.00794

Atoms 
 
1 0 1 0 -12.124355653 -12.6 5.022 
2 0 1 0 -12.124355653 -11.2 5.022 
3 0 1 0 -10.9119200877 -10.5 5.022 
4 0 1 0 -10.9119200877 -9.1 5.022 
5 0 1 0 -9.69948452239 -12.6 5.022 
6 0 1 0 -9.69948452239 -11.2 5.022 
7 0 1 0 -8.48704895709 -10.5 5.022 
8 0 1 0 -8.48704895709 -9.1 5.022 
9 0 1 0 -7.27461339179 -12.6 5.022 
10 0 1 0 -7.27461339179 -11.2 5.022 
11 0 1 0 -6.06217782649 -10.5 5.022 
12 0 1 0 -6.06217782649 -9.1 5.022 
13 0 1 0 -4.84974226119 -12.6 5.022 
14 0 1 0 -4.84974226119 -11.2 5.022 
15 0 1 0 -3.63730669589 -10.5 5.022 
16 0 1 0 -3.63730669589 -9.1 5.022 
17 0 1 0 -2.4248711306 -12.6 5.022 
18 0 1 0 -2.4248711306 -11.2 5.022 
19 0 1 0 -1.2124355653 -10.5 5.022 
20 0 1 0 -1.2124355653 -9.1 5.022 
21 0 1 0 0.0 -12.6 5.022 
22 0 1 0 0.0 -11.2 5.022 
23 0 1 0 1.2124355653 -10.5 5.022 
24 0 1 0 1.2124355653 -9.1 5.022 
25 0 1 0 2.4248711306 -12.6 5.022 
26 0 1 0 2.4248711306 -11.2 5.022 
27 0 1 0 3.63730669589 -10.5 5.022 
28 0 1 0 3.63730669589 -9.1 5.022 
29 0 1 0 4.84974226119 -12.6 5.022 
30 0 1 0 4.84974226119 -11.2 5.022 
31 0 1 0 6.06217782649 -10.5 5.022 
32 0 1 0 6.06217782649 -9.1 5.022 
33 0 1 0 7.27461339179 -12.6 5.022 
34 0 1 0 7.27461339179 -11.2 5.022 
35 0 1 0 8.48704895709 -10.5 5.022 
36 0 1 0 8.48704895709 -9.1 5.022 
37 0 1 0 9.69948452239 -12.6 5.022 
38 0 1 0 9.69948452239 -11.2 5.022 
39 0 1 0 10.9119200877 -10.5 5.022 
40 0 1 0 10.9119200877 -9.1 5.022 
41 0 1 0 -12.124355653 -8.4 5.022 
42 0 1 0 -12.124355653 -7.0 5.022 
43 0 1 0 -10.9119200877 -6.3 5.022 
44 0 1 0 -10.9119200877 -4.9 5.022 
45 0 1 0 -9.69948452239 -8.4 5.022 
46 0 1 0 -9.69948452239 -7.0 5.022 
47 0 1 0 -8.48704895709 -6.3 5.022 
48 0 1 0 -8.48704895709 -4.9 5.022 
49 0 1 0 -7.27461339179 -8.4 5.022 
50 0 1 0 -7.27461339179 -7.0 5.022 
51 0 1 0 -6.06217782649 -6.3 5.022 
52 0 1 0 -6.06217782649 -4.9 5.022 
53 0 1 0 -4.84974226119 -8.4 5.022 
54 0 1 0 -4.84974226119 -7.0 5.022 
55 0 1 0 -3.63730669589 -6.3 5.022 
56 0 1 0 -3.63730669589 -4.9 5.022 
57 0 1 0 -2.4248711306 -8.4 5.022 
58 0 1 0 -2.4248711306 -7.0 5.022 
59 0 1 0 -1.2124355653 -6.3 5.022 
60 0 1 0 -1.2124355653 -4.9 5.022 
61 0 1 0 0.0 -8.4 5.022 
62 0 1 0 0.0 -7.0 5.022 
63 0 1 0 1.2124355653 -6.3 5.022 
64 0 1 0 1.2124355653 -4.9 5.022 
65 0 1 0 2.4248711306 -8.4 5.022 
66 0 1 0 2.4248711306 -7.0 5.022 
67 0 1 0 3.63730669589 -6.3 5.022 
68 0 1 0 3.63730669589 -4.9 5.022 
69 0 1 0 4.84974226119 -8.4 5.022 
70 0 1 0 4.84974226119 -7.0 5.022 
71 0 1 0 6.06217782649 -6.3 5.022 
72 0 1 0 6.06217782649 -4.9 5.022 
73 0 1 0 7.27461339179 -8.4 5.022 
74 0 1 0 7.27461339179 -7.0 5.022 
75 0 1 0 8.48704895709 -6.3 5.022 
76 0 1 0 8.48704895709 -4.9 5.022 
77 0 1 0 9.69948452239 -8.4 5.022 
78 0 1 0 9.69948452239 -7.0 5.022 
79 0 1 0 10.9119200877 -6.3 5.022 
80 0 1 0 10.9119200877 -4.9 5.022 
81 0 1 0 -12.124355653 -4.2 5.022 
82 0 1 0 -12.124355653 -2.8 5.022 
83 0 1 0 -10.9119200877 -2.1 5.022 
84 0 1 0 -10.9119200877 -0.7 5.022 
85 0 1 0 -9.69948452239 -4.2 5.022 
86 0 1 0 -9.69948452239 -2.8 5.022 
87 0 1 0 -8.48704895709 -2.1 5.022 
88 0 1 0 -8.48704895709 -0.7 5.022 
89 0 1 0 -7.27461339179 -4.2 5.022 
90 0 1 0 -7.27461339179 -2.8 5.022 
91 0 1 0 -6.06217782649 -2.1 5.022 
92 0 1 0 -6.06217782649 -0.7 5.022 
93 0 1 0 -4.84974226119 -4.2 5.022 
94 0 1 0 -4.84974226119 -2.8 5.022 
95 0 1 0 -3.63730669589 -2.1 5.022 
96 0 1 0 -3.63730669589 -0.7 5.022 
97 0 1 0 -2.4248711306 -4.2 5.022 
98 0 1 0 -2.4248711306 -2.8 5.022 
99 0 1 0 -1.2124355653 -2.1 5.022 
100 0 1 0 -1.2124355653 -0.7 5.022 
101 0 1 0 0.0 -4.2 5.022 
102 0 1 0 0.0 -2.8 5.022 
103 0 1 0 1.2124355653 -2.1 5.022 
104 0 1 0 1.2124355653 -0.7 5.022 
105 0 1 0 2.4248711306 -4.2 5.022 
106 0 1 0 2.4248711306 -2.8 5.022 
107 0 1 0 3.63730669589 -2.1 5.022 
108 0 1 0 3.63730669589 -0.7 5.022 
109 0 1 0 4.84974226119 -4.2 5.022 
110 0 1 0 4.84974226119 -2.8 5.022 
111 0 1 0 6.06217782649 -2.1 5.022 
112 0 1 0 6.06217782649 -0.7 5.022 
113 0 1 0 7.27461339179 -4.2 5.022 
114 0 1 0 7.27461339179 -2.8 5.022 
115 0 1 0 8.48704895709 -2.1 5.022 
116 0 1 0 8.48704895709 -0.7 5.022 
117 0 1 0 9.69948452239 -4.2 5.022 
118 0 1 0 9.69948452239 -2.8 5.022 
119 0 1 0 10.9119200877 -2.1 5.022 
120 0 1 0 10.9119200877 -0.7 5.022 
121 0 1 0 -12.124355653 0.0 5.022 
122 0 1 0 -12.124355653 1.4 5.022 
123 0 1 0 -10.9119200877 2.1 5.022 
124 0 1 0 -10.9119200877 3.5 5.022 
125 0 1 0 -9.69948452239 0.0 5.022 
126 0 1 0 -9.69948452239 1.4 5.022 
127 0 1 0 -8.48704895709 2.1 5.022 
128 0 1 0 -8.48704895709 3.5 5.022 
129 0 1 0 -7.27461339179 0.0 5.022 
130 0 1 0 -7.27461339179 1.4 5.022 
131 0 1 0 -6.06217782649 2.1 5.022 
132 0 1 0 -6.06217782649 3.5 5.022 
133 0 1 0 -4.84974226119 0.0 5.022 
134 0 1 0 -4.84974226119 1.4 5.022 
135 0 1 0 -3.63730669589 2.1 5.022 
136 0 1 0 -3.63730669589 3.5 5.022 
137 0 1 0 -2.4248711306 0.0 5.022 
138 0 1 0 -2.4248711306 1.4 5.022 
139 0 1 0 -1.2124355653 2.1 5.022 
140 0 1 0 -1.2124355653 3.5 5.022 
141 0 1 0 0.0 0.0 5.022 
142 0 1 0 0.0 1.4 5.022 
143 0 1 0 1.2124355653 2.1 5.022 
144 0 1 0 1.2124355653 3.5 5.022 
145 0 1 0 2.4248711306 0.0 5.022 
146 0 1 0 2.4248711306 1.4 5.022 
147 0 1 0 3.63730669589 2.1 5.022 
148 0 1 0 3.63730669589 3.5 5.022 
149 0 1 0 4.84974226119 0.0 5.022 
150 0 1 0 4.84974226119 1.4 5.022 
151 0 1 0 6.06217782649 2.1 5.022 
152 0 1 0 6.06217782649 3.5 5.022 
153 0 1 0 7.27461339179 0.0 5.022 
154 0 1 0 7.27461339179 1.4 5.022 
155 0 1 0 8.48704895709 2.1 5.022 
156 0 1 0 8.48704895709 3.5 5.022 
157 0 1 0 9.69948452239 0.0 5.022 
158 0 1 0 9.69948452239 1.4 5.022 
159 0 1 0 10.9119200877 2.1 5.022 
160 0 1 0 10.9119200877 3.5 5.022 
161 0 1 0 -12.124355653 4.2 5.022 
162 0 1 0 -12.124355653 5.6 5.022 
163 0 1 0 -10.9119200877 6.3 5.022 
164 0 1 0 -10.9119200877 7.7 5.022 
165 0 1 0 -9.69948452239 4.2 5.022 
166 0 1 0 -9.69948452239 5.6 5.022 
167 0 1 0 -8.48704895709 6.3 5.022 
168 0 1 0 -8.48704895709 7.7 5.022 
169 0 1 0 -7.27461339179 4.2 5.022 
170 0 1 0 -7.27461339179 5.6 5.022 
171 0 1 0 -6.06217782649 6.3 5.022 
172 0 1 0 -6.06217782649 7.7 5.022 
173 0 1 0 -4.84974226119 4.2 5.022 
174 0 1 0 -4.84974226119 5.6 5.022 
175 0 1 0 -3.63730669589 6.3 5.022 
176 0 1 0 -3.63730669589 7.7 5.022 
177 0 1 0 -2.4248711306 4.2 5.022 
178 0 1 0 -2.4248711306 5.6 5.022 
179 0 1 0 -1.2124355653 6.3 5.022 
180 0 1 0 -1.2124355653 7.7 5.022 
181 0 1 0 0.0 4.2 5.022 
182 0 1 0 0.0 5.6 5.022 
183 0 1 0 1.2124355653 6.3 5.022 
184 0 1 0 1.2124355653 7.7 5.022 
185 0 1 0 2.4248711306 4.2 5.022 
186 0 1 0 2.4248711306 5.6 5.022 
187 0 1 0 3.63730669589 6.3 5.022 
188 0 1 0 3.63730669589 7.7 5.022 
189 0 1 0 4.84974226119 4.2 5.022 
190 0 1 0 4.84974226119 5.6 5.022 
191 0 1 0 6.06217782649 6.3 5.022 
192 0 1 0 6.06217782649 7.7 5.022 
193 0 1 0 7.27461339179 4.2 5.022 
194 0 1 0 7.27461339179 5.6 5.022 
195 0 1 0 8.48704895709 6.3 5.022 
196 0 1 0 8.48704895709 7.7 5.022 
197 0 1 0 9.69948452239 4.2 5.022 
198 0 1 0 9.69948452239 5.6 5.022 
199 0 1 0 10.9119200877 6.3 5.022 
200 0 1 0 10.9119200877 7.7 5.022 
201 0 1 0 -12.124355653 8.4 5.022 
202 0 1 0 -12.124355653 9.8 5.022 
203 0 1 0 -10.9119200877 10.5 5.022 
204 0 1 0 -10.9119200877 11.9 5.022 
205 0 1 0 -9.69948452239 8.4 5.022 
206 0 1 0 -9.69948452239 9.8 5.022 
207 0 1 0 -8.48704895709 10.5 5.022 
208 0 1 0 -8.48704895709 11.9 5.022 
209 0 1 0 -7.27461339179 8.4 5.022 
210 0 1 0 -7.27461339179 9.8 5.022 
211 0 1 0 -6.06217782649 10.5 5.022 
212 0 1 0 -6.06217782649 11.9 5.022 
213 0 1 0 -4.84974226119 8.4 5.022 
214 0 1 0 -4.84974226119 9.8 5.022 
215 0 1 0 -3.63730669589 10.5 5.022 
216 0 1 0 -3.63730669589 11.9 5.022 
217 0 1 0 -2.4248711306 8.4 5.022 
218 0 1 0 -2.4248711306 9.8 5.022 
219 0 1 0 -1.2124355653 10.5 5.022 
220 0 1 0 -1.2124355653 11.9 5.022 
221 0 1 0 0.0 8.4 5.022 
222 0 1 0 0.0 9.8 5.022 
223 0 1 0 1.2124355653 10.5 5.022 
224 0 1 0 1.2124355653 11.9 5.022 
225 0 1 0 2.4248711306 8.4 5.022 
226 0 1 0 2.4248711306 9.8 5.022 
227 0 1 0 3.63730669589 10.5 5.022 
228 0 1 0 3.63730669589 11.9 5.022 
229 0 1 0 4.84974226119 8.4 5.022 
230 0 1 0 4.84974226119 9.8 5.022 
231 0 1 0 6.06217782649 10.5 5.022 
232 0 1 0 6.06217782649 11.9 5.022 
233 0 1 0 7.27461339179 8.4 5.022 
234 0 1 0 7.27461339179 9.8 5.022 
235 0 1 0 8.48704895709 10.5 5.022 
236 0 1 0 8.48704895709 11.9 5.022 
237 0 1 0 9.69948452239 8.4 5.022 
238 0 1 0 9.69948452239 9.8 5.022 
239 0 1 0 10.9119200877 10.5 5.022 
240 0 1 0 10.9119200877 11.9 5.022 
241 0 2 0 -12.124355653 -12.6 1.674 
242 0 2 0 -12.124355653 -11.2 1.674 
243 0 2 0 -10.9119200877 -10.5 1.674 
244 0 2 0 -10.9119200877 -9.1 1.674 
245 0 2 0 -9.69948452239 -12.6 1.674 
246 0 2 0 -9.69948452239 -11.2 1.674 
247 0 2 0 -8.48704895709 -10.5 1.674 
248 0 2 0 -8.48704895709 -9.1 1.674 
249 0 2 0 -7.27461339179 -12.6 1.674 
250 0 2 0 -7.27461339179 -11.2 1.674 
251 0 2 0 -6.06217782649 -10.5 1.674 
252 0 2 0 -6.06217782649 -9.1 1.674 
253 0 2 0 -4.84974226119 -12.6 1.674 
254 0 2 0 -4.84974226119 -11.2 1.674 
255 0 2 0 -3.63730669589 -10.5 1.674 
256 0 2 0 -3.63730669589 -9.1 1.674 
257 0 2 0 -2.4248711306 -12.6 1.674 
258 0 2 0 -2.4248711306 -11.2 1.674 
259 0 2 0 -1.2124355653 -10.5 1.674 
260 0 2 0 -1.2124355653 -9.1 1.674 
261 0 2 0 0.0 -12.6 1.674 
262 0 2 0 0.0 -11.2 1.674 
263 0 2 0 1.2124355653 -10.5 1.674 
264 0 2 0 1.2124355653 -9.1 1.674 
265 0 2 0 2.4248711306 -12.6 1.674 
266 0 2 0 2.4248711306 -11.2 1.674 
267 0 2 0 3.63730669589 -10.5 1.674 
268 0 2 0 3.63730669589 -9.1 1.674 
269 0 2 0 4.84974226119 -12.6 1.674 
270 0 2 0 4.84974226119 -11.2 1.674 
271 0 2 0 6.06217782649 -10.5 1.674 
272 0 2 0 6.06217782649 -9.1 1.674 
273 0 2 0 7.27461339179 -12.6 1.674 
274 0 2 0 7.27461339179 -11.2 1.674 
275 0 2 0 8.48704895709 -10.5 1.674 
276 0 2 0 8.48704895709 -9.1 1.674 
277 0 2 0 9.69948452239 -12.6 1.674 
278 0 2 0 9.69948452239 -11.2 1.674 
279 0 2 0 10.9119200877 -10.5 1.674 
280 0 2 0 10.9119200877 -9.1 1.674 
281 0 2 0 -12.124355653 -8.4 1.674 
282 0 2 0 -12.124355653 -7.0 1.674 
283 0 2 0 -10.9119200877 -6.3 1.674 
284 0 2 0 -10.9119200877 -4.9 1.674 
285 0 2 0 -9.69948452239 -8.4 1.674 
286 0 2 0 -9.69948452239 -7.0 1.674 
287 0 2 0 -8.48704895709 -6.3 1.674 
288 0 2 0 -8.48704895709 -4.9 1.674 
289 0 2 0 -7.27461339179 -8.4 1.674 
290 0 2 0 -7.27461339179 -7.0 1.674 
291 0 2 0 -6.06217782649 -6.3 1.674 
292 0 2 0 -6.06217782649 -4.9 1.674 
293 0 2 0 -4.84974226119 -8.4 1.674 
294 0 2 0 -4.84974226119 -7.0 1.674 
295 0 2 0 -3.63730669589 -6.3 1.674 
296 0 2 0 -3.63730669589 -4.9 1.674 
297 0 2 0 -2.4248711306 -8.4 1.674 
298 0 2 0 -2.4248711306 -7.0 1.674 
299 0 2 0 -1.2124355653 -6.3 1.674 
300 0 2 0 -1.2124355653 -4.9 1.674 
301 0 2 0 0.0 -8.4 1.674 
302 0 2 0 0.0 -7.0 1.674 
303 0 2 0 1.2124355653 -6.3 1.674 
304 0 2 0 1.2124355653 -4.9 1.674 
305 0 2 0 2.4248711306 -8.4 1.674 
306 0 2 0 2.4248711306 -7.0 1.674 
307 0 2 0 3.63730669589 -6.3 1.674 
308 0 2 0 3.63730669589 -4.9 1.674 
309 0 2 0 4.84974226119 -8.4 1.674 
310 0 2 0 4.84974226119 -7.0 1.674 
311 0 2 0 6.06217782649 -6.3 1.674 
312 0 2 0 6.06217782649 -4.9 1.674 
313 0 2 0 7.27461339179 -8.4 1.674 
314 0 2 0 7.27461339179 -7.0 1.674 
315 0 2 0 8.48704895709 -6.3 1.674 
316 0 2 0 8.48704895709 -4.9 1.674 
317 0 2 0 9.69948452239 -8.4 1.674 
318 0 2 0 9.69948452239 -7.0 1.674 
319 0 2 0 10.9119200877 -6.3 1.674 
320 0 2 0 10.9119200877 -4.9 1.674 
321 0 2 0 -12.124355653 -4.2 1.674 
322 0 2 0 -12.124355653 -2.8 1.674 
323 0 2 0 -10.9119200877 -2.1 1.674 
324 0 2 0 -10.9119200877 -0.7 1.674 
325 0 2 0 -9.69948452239 -4.2 1.674 
326 0 2 0 -9.69948452239 -2.8 1.674 
327 0 2 0 -8.48704895709 -2.1 1.674 
328 0 2 0 -8.48704895709 -0.7 1.674 
329 0 2 0 -7.27461339179 -4.2 1.674 
330 0 2 0 -7.27461339179 -2.8 1.674 
331 0 2 0 -6.06217782649 -2.1 1.674 
332 0 2 0 -6.06217782649 -0.7 1.674 
333 0 2 0 -4.84974226119 -4.2 1.674 
334 0 2 0 -4.84974226119 -2.8 1.674 
335 0 2 0 -3.63730669589 -2.1 1.674 
336 0 2 0 -3.63730669589 -0.7 1.674 
337 0 2 0 -2.4248711306 -4.2 1.674 
338 0 2 0 -2.4248711306 -2.8 1.674 
339 0 2 0 -1.2124355653 -2.1 1.674 
340 0 2 0 -1.2124355653 -0.7 1.674 
341 0 2 0 0.0 -4.2 1.674 
342 0 2 0 0.0 -2.8 1.674 
343 0 2 0 1.2124355653 -2.1 1.674 
344 0 2 0 1.2124355653 -0.7 1.674 
345 0 2 0 2.4248711306 -4.2 1.674 
346 0 2 0 2.4248711306 -2.8 1.674 
347 0 2 0 3.63730669589 -2.1 1.674 
348 0 2 0 3.63730669589 -0.7 1.674 
349 0 2 0 4.84974226119 -4.2 1.674 
350 0 2 0 4.84974226119 -2.8 1.674 
351 0 2 0 6.06217782649 -2.1 1.674 
352 0 2 0 6.06217782649 -0.7 1.674 
353 0 2 0 7.27461339179 -4.2 1.674 
354 0 2 0 7.27461339179 -2.8 1.674 
355 0 2 0 8.48704895709 -2.1 1.674 
356 0 2 0 8.48704895709 -0.7 1.674 
357 0 2 0 9.69948452239 -4.2 1.674 
358 0 2 0 9.69948452239 -2.8 1.674 
359 0 2 0 10.9119200877 -2.1 1.674 
360 0 2 0 10.9119200877 -0.7 1.674 
361 0 2 0 -12.124355653 0.0 1.674 
362 0 2 0 -12.124355653 1.4 1.674 
363 0 2 0 -10.9119200877 2.1 1.674 
364 0 2 0 -10.9119200877 3.5 1.674 
365 0 2 0 -9.69948452239 0.0 1.674 
366 0 2 0 -9.69948452239 1.4 1.674 
367 0 2 0 -8.48704895709 2.1 1.674 
368 0 2 0 -8.48704895709 3.5 1.674 
369 0 2 0 -7.27461339179 0.0 1.674 
370 0 2 0 -7.27461339179 1.4 1.674 
371 0 2 0 -6.06217782649 2.1 1.674 
372 0 2 0 -6.06217782649 3.5 1.674 
373 0 2 0 -4.84974226119 0.0 1.674 
374 0 2 0 -4.84974226119 1.4 1.674 
375 0 2 0 -3.63730669589 2.1 1.674 
376 0 2 0 -3.63730669589 3.5 1.674 
377 0 2 0 -2.4248711306 0.0 1.674 
378 0 2 0 -2.4248711306 1.4 1.674 
379 0 2 0 -1.2124355653 2.1 1.674 
380 0 2 0 -1.2124355653 3.5 1.674 
381 0 2 0 0.0 0.0 1.674 
382 0 2 0 0.0 1.4 1.674 
383 0 2 0 1.2124355653 2.1 1.674 
384 0 2 0 1.2124355653 3.5 1.674 
385 0 2 0 2.4248711306 0.0 1.674 
386 0 2 0 2.4248711306 1.4 1.674 
387 0 2 0 3.63730669589 2.1 1.674 
388 0 2 0 3.63730669589 3.5 1.674 
389 0 2 0 4.84974226119 0.0 1.674 
390 0 2 0 4.84974226119 1.4 1.674 
391 0 2 0 6.06217782649 2.1 1.674 
392 0 2 0 6.06217782649 3.5 1.674 
393 0 2 0 7.27461339179 0.0 1.674 
394 0 2 0 7.27461339179 1.4 1.674 
395 0 2 0 8.48704895709 2.1 1.674 
396 0 2 0 8.48704895709 3.5 1.674 
397 0 2 0 9.69948452239 0.0 1.674 
398 0 2 0 9.69948452239 1.4 1.674 
399 0 2 0 10.9119200877 2.1 1.674 
400 0 2 0 10.9119200877 3.5 1.674 
401 0 2 0 -12.124355653 4.2 1.674 
402 0 2 0 -12.124355653 5.6 1.674 
403 0 2 0 -10.9119200877 6.3 1.674 
404 0 2 0 -10.9119200877 7.7 1.674 
405 0 2 0 -9.69948452239 4.2 1.674 
406 0 2 0 -9.69948452239 5.6 1.674 
407 0 2 0 -8.48704895709 6.3 1.674 
408 0 2 0 -8.48704895709 7.7 1.674 
409 0 2 0 -7.27461339179 4.2 1.674 
410 0 2 0 -7.27461339179 5.6 1.674 
411 0 2 0 -6.06217782649 6.3 1.674 
412 0 2 0 -6.06217782649 7.7 1.674 
413 0 2 0 -4.84974226119 4.2 1.674 
414 0 2 0 -4.84974226119 5.6 1.674 
415 0 2 0 -3.63730669589 6.3 1.674 
416 0 2 0 -3.63730669589 7.7 1.674 
417 0 2 0 -2.4248711306 4.2 1.674 
418 0 2 0 -2.4248711306 5.6 1.674 
419 0 2 0 -1.2124355653 6.3 1.674 
420 0 2 0 -1.2124355653 7.7 1.674 
421 0 2 0 0.0 4.2 1.674 
422 0 2 0 0.0 5.6 1.674 
423 0 2 0 1.2124355653 6.3 1.674 
424 0 2 0 1.2124355653 7.7 1.674 
425 0 2 0 2.4248711306 4.2 1.674 
426 0 2 0 2.4248711306 5.6 1.674 
427 0 2 0 3.63730669589 6.3 1.674 
428 0 2 0 3.63730669589 7.7 1.674 
429 0 2 0 4.84974226119 4.2 1.674 
430 0 2 0 4.84974226119 5.6 1.674 
431 0 2 0 6.06217782649 6.3 1.674 
432 0 2 0 6.06217782649 7.7 1.674 
433 0 2 0 7.27461339179 4.2 1.674 
434 0 2 0 7.27461339179 5.6 1.674 
435 0 2 0 8.48704895709 6.3 1.674 
436 0 2 0 8.48704895709 7.7 1.674 
437 0 2 0 9.69948452239 4.2 1.674 
438 0 2 0 9.69948452239 5.6 1.674 
439 0 2 0 10.9119200877 6.3 1.674 
440 0 2 0 10.9119200877 7.7 1.674 
441 0 2 0 -12.124355653 8.4 1.674 
442 0 2 0 -12.124355653 9.8 1.674 
443 0 2 0 -10.9119200877 10.5 1.674 
444 0 2 0 -10.9119200877 11.9 1.674 
445 0 2 0 -9.69948452239 8.4 1.674 
446 0 2 0 -9.69948452239 9.8 1.674 
447 0 2 0 -8.48704895709 10.5 1.674 
448 0 2 0 -8.48704895709 11.9 1.674 
449 0 2 0 -7.27461339179 8.4 1.674 
450 0 2 0 -7.27461339179 9.8 1.674 
451 0 2 0 -6.06217782649 10.5 1.674 
452 0 2 0 -6.06217782649 11.9 1.674 
453 0 2 0 -4.84974226119 8.4 1.674 
454 0 2 0 -4.84974226119 9.8 1.674 
455 0 2 0 -3.63730669589 10.5 1.674 
456 0 2 0 -3.63730669589 11.9 1.674 
457 0 2 0 -2.4248711306 8.4 1.674 
458 0 2 0 -2.4248711306 9.8 1.674 
459 0 2 0 -1.2124355653 10.5 1.674 
460 0 2 0 -1.2124355653 11.9 1.674 
461 0 2 0 0.0 8.4 1.674 
462 0 2 0 0.0 9.8 1.674 
463 0 2 0 1.2124355653 10.5 1.674 
464 0 2 0 1.2124355653 11.9 1.674 
465 0 2 0 2.4248711306 8.4 1.674 
466 0 2 0 2.4248711306 9.8 1.674 
467 0 2 0 3.63730669589 10.5 1.674 
468 0 2 0 3.63730669589 11.9 1.674 
469 0 2 0 4.84974226119 8.4 1.674 
470 0 2 0 4.84974226119 9.8 1.674 
471 0 2 0 6.06217782649 10.5 1.674 
472 0 2 0 6.06217782649 11.9 1.674 
473 0 2 0 7.27461339179 8.4 1.674 
474 0 2 0 7.27461339179 9.8 1.674 
475 0 2 0 8.48704895709 10.5 1.674 
476 0 2 0 8.48704895709 11.9 1.674 
477 0 2 0 9.69948452239 8.4 1.674 
478 0 2 0 9.69948452239 9.8 1.674 
479 0 2 0 10.9119200877 10.5 1.674 
480 0 2 0 10.9119200877 11.9 1.674 
481 0 3 0 -12.124355653 -12.6 -1.674 
482 0 3 0 -12.124355653 -11.2 -1.674 
483 0 3 0 -10.9119200877 -10.5 -1.674 
484 0 3 0 -10.9119200877 -9.1 -1.674 
485 0 3 0 -9.69948452239 -12.6 -1.674 
486 0 3 0 -9.69948452239 -11.2 -1.674 
487 0 3 0 -8.48704895709 -10.5 -1.674 
488 0 3 0 -8.48704895709 -9.1 -1.674 
489 0 3 0 -7.27461339179 -12.6 -1.674 
490 0 3 0 -7.27461339179 -11.2 -1.674 
491 0 3 0 -6.06217782649 -10.5 -1.674 
492 0 3 0 -6.06217782649 -9.1 -1.674 
493 0 3 0 -4.84974226119 -12.6 -1.674 
494 0 3 0 -4.84974226119 -11.2 -1.674 
495 0 3 0 -3.63730669589 -10.5 -1.674 
496 0 3 0 -3.63730669589 -9.1 -1.674 
497 0 3 0 -2.4248711306 -12.6 -1.674 
498 0 3 0 -2.4248711306 -11.2 -1.674 
499 0 3 0 -1.2124355653 -10.5 -1.674 
500 0 3 0 -1.2124355653 -9.1 -1.674 
501 0 3 0 0.0 -12.6 -1.674 
502 0 3 0 0.0 -11.2 -1.674 
503 0 3 0 1.2124355653 -10.5 -1.674 
504 0 3 0 1.2124355653 -9.1 -1.674 
505 0 3 0 2.4248711306 -12.6 -1.674 
506 0 3 0 2.4248711306 -11.2 -1.674 
507 0 3 0 3.63730669589 -10.5 -1.674 
508 0 3 0 3.63730669589 -9.1 -1.674 
509 0 3 0 4.84974226119 -12.6 -1.674 
510 0 3 0 4.84974226119 -11.2 -1.674 
511 0 3 0 6.06217782649 -10.5 -1.674 
512 0 3 0 6.06217782649 -9.1 -1.674 
513 0 3 0 7.27461339179 -12.6 -1.674 
514 0 3 0 7.27461339179 -11.2 -1.674 
515 0 3 0 8.48704895709 -10.5 -1.674 
516 0 3 0 8.48704895709 -9.1 -1.674 
517 0 3 0 9.69948452239 -12.6 -1.674 
518 0 3 0 9.69948452239 -11.2 -1.674 
519 0 3 0 10.9119200877 -10.5 -1.674 
520 0 3 0 10.9119200877 -9.1 -1.674 
521 0 3 0 -12.124355653 -8.4 -1.674 
522 0 3 0 -12.124355653 -7.0 -1.674 
523 0 3 0 -10.9119200877 -6.3 -1.674 
524 0 3 0 -10.9119200877 -4.9 -1.674 
525 0 3 0 -9.69948452239 -8.4 -1.674 
526 0 3 0 -9.69948452239 -7.0 -1.674 
527 0 3 0 -8.48704895709 -6.3 -1.674 
528 0 3 0 -8.48704895709 -4.9 -1.674 
529 0 3 0 -7.27461339179 -8.4 -1.674 
530 0 3 0 -7.27461339179 -7.0 -1.674 
531 0 3 0 -6.06217782649 -6.3 -1.674 
532 0 3 0 -6.06217782649 -4.9 -1.674 
533 0 3 0 -4.84974226119 -8.4 -1.674 
534 0 3 0 -4.84974226119 -7.0 -1.674 
535 0 3 0 -3.63730669589 -6.3 -1.674 
536 0 3 0 -3.63730669589 -4.9 -1.674 
537 0 3 0 -2.4248711306 -8.4 -1.674 
538 0 3 0 -2.4248711306 -7.0 -1.674 
539 0 3 0 -1.2124355653 -6.3 -1.674 
540 0 3 0 -1.2124355653 -4.9 -1.674 
541 0 3 0 0.0 -8.4 -1.674 
542 0 3 0 0.0 -7.0 -1.674 
543 0 3 0 1.2124355653 -6.3 -1.674 
544 0 3 0 1.2124355653 -4.9 -1.674 
545 0 3 0 2.4248711306 -8.4 -1.674 
546 0 3 0 2.4248711306 -7.0 -1.674 
547 0 3 0 3.63730669589 -6.3 -1.674 
548 0 3 0 3.63730669589 -4.9 -1.674 
549 0 3 0 4.84974226119 -8.4 -1.674 
550 0 3 0 4.84974226119 -7.0 -1.674 
551 0 3 0 6.06217782649 -6.3 -1.674 
552 0 3 0 6.06217782649 -4.9 -1.674 
553 0 3 0 7.27461339179 -8.4 -1.674 
554 0 3 0 7.27461339179 -7.0 -1.674 
555 0 3 0 8.48704895709 -6.3 -1.674 
556 0 3 0 8.48704895709 -4.9 -1.674 
557 0 3 0 9.69948452239 -8.4 -1.674 
558 0 3 0 9.69948452239 -7.0 -1.674 
559 0 3 0 10.9119200877 -6.3 -1.674 
560 0 3 0 10.9119200877 -4.9 -1.674 
561 0 3 0 -12.124355653 -4.2 -1.674 
562 0 3 0 -12.124355653 -2.8 -1.674 
563 0 3 0 -10.9119200877 -2.1 -1.674 
564 0 3 0 -10.9119200877 -0.7 -1.674 
565 0 3 0 -9.69948452239 -4.2 -1.674 
566 0 3 0 -9.69948452239 -2.8 -1.674 
567 0 3 0 -8.48704895709 -2.1 -1.674 
568 0 3 0 -8.48704895709 -0.7 -1.674 
569 0 3 0 -7.27461339179 -4.2 -1.674 
570 0 3 0 -7.27461339179 -2.8 -1.674 
571 0 3 0 -6.06217782649 -2.1 -1.674 
572 0 3 0 -6.06217782649 -0.7 -1.674 
573 0 3 0 -4.84974226119 -4.2 -1.674 
574 0 3 0 -4.84974226119 -2.8 -1.674 
575 0 3 0 -3.63730669589 -2.1 -1.674 
576 0 3 0 -3.63730669589 -0.7 -1.674 
577 0 3 0 -2.4248711306 -4.2 -1.674 
578 0 3 0 -2.4248711306 -2.8 -1.674 
579 0 3 0 -1.2124355653 -2.1 -1.674 
580 0 3 0 -1.2124355653 -0.7 -1.674 
581 0 3 0 0.0 -4.2 -1.674 
582 0 3 0 0.0 -2.8 -1.674 
583 0 3 0 1.2124355653 -2.1 -1.674 
584 0 3 0 1.2124355653 -0.7 -1.674 
585 0 3 0 2.4248711306 -4.2 -1.674 
586 0 3 0 2.4248711306 -2.8 -1.674 
587 0 3 0 3.63730669589 -2.1 -1.674 
588 0 3 0 3.63730669589 -0.7 -1.674 
589 0 3 0 4.84974226119 -4.2 -1.674 
590 0 3 0 4.84974226119 -2.8 -1.674 
591 0 3 0 6.06217782649 -2.1 -1.674 
592 0 3 0 6.06217782649 -0.7 -1.674 
593 0 3 0 7.27461339179 -4.2 -1.674 
594 0 3 0 7.27461339179 -2.8 -1.674 
595 0 3 0 8.48704895709 -2.1 -1.674 
596 0 3 0 8.48704895709 -0.7 -1.674 
597 0 3 0 9.69948452239 -4.2 -1.674 
598 0 3 0 9.69948452239 -2.8 -1.674 
599 0 3 0 10.9119200877 -2.1 -1.674 
600 0 3 0 10.9119200877 -0.7 -1.674 
601 0 3 0 -12.124355653 0.0 -1.674 
602 0 3 0 -12.124355653 1.4 -1.674 
603 0 3 0 -10.9119200877 2.1 -1.674 
604 0 3 0 -10.9119200877 3.5 -1.674 
605 0 3 0 -9.69948452239 0.0 -1.674 
606 0 3 0 -9.69948452239 1.4 -1.674 
607 0 3 0 -8.48704895709 2.1 -1.674 
608 0 3 0 -8.48704895709 3.5 -1.674 
609 0 3 0 -7.27461339179 0.0 -1.674 
610 0 3 0 -7.27461339179 1.4 -1.674 
611 0 3 0 -6.06217782649 2.1 -1.674 
612 0 3 0 -6.06217782649 3.5 -1.674 
613 0 3 0 -4.84974226119 0.0 -1.674 
614 0 3 0 -4.84974226119 1.4 -1.674 
615 0 3 0 -3.63730669589 2.1 -1.674 
616 0 3 0 -3.63730669589 3.5 -1.674 
617 0 3 0 -2.4248711306 0.0 -1.674 
618 0 3 0 -2.4248711306 1.4 -1.674 
619 0 3 0 -1.2124355653 2.1 -1.674 
620 0 3 0 -1.2124355653 3.5 -1.674 
621 0 3 0 0.0 0.0 -1.674 
622 0 3 0 0.0 1.4 -1.674 
623 0 3 0 1.2124355653 2.1 -1.674 
624 0 3 0 1.2124355653 3.5 -1.674 
625 0 3 0 2.4248711306 0.0 -1.674 
626 0 3 0 2.4248711306 1.4 -1.674 
627 0 3 0 3.63730669589 2.1 -1.674 
628 0 3 0 3.63730669589 3.5 -1.674 
629 0 3 0 4.84974226119 0.0 -1.674 
630 0 3 0 4.84974226119 1.4 -1.674 
631 0 3 0 6.06217782649 2.1 -1.674 
632 0 3 0 6.06217782649 3.5 -1.674 
633 0 3 0 7.27461339179 0.0 -1.674 
634 0 3 0 7.27461339179 1.4 -1.674 
635 0 3 0 8.48704895709 2.1 -1.674 
636 0 3 0 8.48704895709 3.5 -1.674 
637 0 3 0 9.69948452239 0.0 -1.674 
638 0 3 0 9.69948452239 1.4 -1.674 
639 0 3 0 10.9119200877 2.1 -1.674 
640 0 3 0 10.9119200877 3.5 -1.674 
641 0 3 0 -12.124355653 4.2 -1.674 
642 0 3 0 -12.124355653 5.6 -1.674 
643 0 3 0 -10.9119200877 6.3 -1.674 
644 0 3 0 -10.9119200877 7.7 -1.674 
645 0 3 0 -9.69948452239 4.2 -1.674 
646 0 3 0 -9.69948452239 5.6 -1.674 
647 0 3 0 -8.48704895709 6.3 -1.674 
648 0 3 0 -8.48704895709 7.7 -1.674 
649 0 3 0 -7.27461339179 4.2 -1.674 
650 0 3 0 -7.27461339179 5.6 -1.674 
651 0 3 0 -6.06217782649 6.3 -1.674 
652 0 3 0 -6.06217782649 7.7 -1.674 
653 0 3 0 -4.84974226119 4.2 -1.674 
654 0 3 0 -4.84974226119 5.6 -1.674 
655 0 3 0 -3.63730669589 6.3 -1.674 
656 0 3 0 -3.63730669589 7.7 -1.674 
657 0 3 0 -2.4248711306 4.2 -1.674 
658 0 3 0 -2.4248711306 5.6 -1.674 
659 0 3 0 -1.2124355653 6.3 -1.674 
660 0 3 0 -1.2124355653 7.7 -1.674 
661 0 3 0 0.0 4.2 -1.674 
662 0 3 0 0.0 5.6 -1.674 
663 0 3 0 1.2124355653 6.3 -1.674 
664 0 3 0 1.2124355653 7.7 -1.674 
665 0 3 0 2.4248711306 4.2 -1.674 
666 0 3 0 2.4248711306 5.6 -1.674 
667 0 3 0 3.63730669589 6.3 -1.674 
668 0 3 0 3.63730669589 7.7 -1.674 
669 0 3 0 4.84974226119 4.2 -1.674 
670 0 3 0 4.84974226119 5.6 -1.674 
671 0 3 0 6.06217782649 6.3 -1.674 
672 0 3 0 6.06217782649 7.7 -1.674 
673 0 3 0 7.27461339179 4.2 -1.674 
674 0 3 0 7.27461339179 5.6 -1.674 
675 0 3 0 8.48704895709 6.3 -1.674 
676 0 3 0 8.48704895709 7.7 -1.674 
677 0 3 0 9.69948452239 4.2 -1.674 
678 0 3 0 9.69948452239 5.6 -1.674 
679 0 3 0 10.9119200877 6.3 -1.674 
680 0 3 0 10.9119200877 7.7 -1.674 
681 0 3 0 -12.124355653 8.4 -1.674 
682 0 3 0 -12.124355653 9.8 -1.674 
683 0 3 0 -10.9119200877 10.5 -1.674 
684 0 3 0 -10.9119200877 11.9 -1.674 
685 0 3 0 -9.69948452239 8.4 -1.674 
686 0 3 0 -9.69948452239 9.8 -1.674 
687 0 3 0 -8.48704895709 10.5 -1.674 
688 0 3 0 -8.48704895709 11.9 -1.674 
689 0 3 0 -7.27461339179 8.4 -1.674 
690 0 3 0 -7.27461339179 9.8 -1.674 
691 0 3 0 -6.06217782649 10.5 -1.674 
692 0 3 0 -6.06217782649 11.9 -1.674 
693 0 3 0 -4.84974226119 8.4 -1.674 
694 0 3 0 -4.84974226119 9.8 -1.674 
695 0 3 0 -3.63730669589 10.5 -1.674 
696 0 3 0 -3.63730669589 11.9 -1.674 
697 0 3 0 -2.4248711306 8.4 -1.674 
698 0 3 0 -2.4248711306 9.8 -1.674 
699 0 3 0 -1.2124355653 10.5 -1.674 
700 0 3 0 -1.2124355653 11.9 -1.674 
701 0 3 0 0.0 8.4 -1.674 
702 0 3 0 0.0 9.8 -1.674 
703 0 3 0 1.2124355653 10.5 -1.674 
704 0 3 0 1.2124355653 11.9 -1.674 
705 0 3 0 2.4248711306 8.4 -1.674 
706 0 3 0 2.4248711306 9.8 -1.674 
707 0 3 0 3.63730669589 10.5 -1.674 
708 0 3 0 3.63730669589 11.9 -1.674 
709 0 3 0 4.84974226119 8.4 -1.674 
710 0 3 0 4.84974226119 9.8 -1.674 
711 0 3 0 6.06217782649 10.5 -1.674 
712 0 3 0 6.06217782649 11.9 -1.674 
713 0 3 0 7.27461339179 8.4 -1.674 
714 0 3 0 7.27461339179 9.8 -1.674 
715 0 3 0 8.48704895709 10.5 -1.674 
716 0 3 0 8.48704895709 11.9 -1.674 
717 0 3 0 9.69948452239 8.4 -1.674 
718 0 3 0 9.69948452239 9.8 -1.674 
719 0 3 0 10.9119200877 10.5 -1.674 
720 0 3 0 10.9119200877 11.9 -1.674 
721 0 4 0 -12.124355653 -12.6 -5.022 
722 0 4 0 -12.124355653 -11.2 -5.022 
723 0 4 0 -10.9119200877 -10.5 -5.022 
724 0 4 0 -10.9119200877 -9.1 -5.022 
725 0 4 0 -9.69948452239 -12.6 -5.022 
726 0 4 0 -9.69948452239 -11.2 -5.022 
727 0 4 0 -8.48704895709 -10.5 -5.022 
728 0 4 0 -8.48704895709 -9.1 -5.022 
729 0 4 0 -7.27461339179 -12.6 -5.022 
730 0 4 0 -7.27461339179 -11.2 -5.022 
731 0 4 0 -6.06217782649 -10.5 -5.022 
732 0 4 0 -6.06217782649 -9.1 -5.022 
733 0 4 0 -4.84974226119 -12.6 -5.022 
734 0 4 0 -4.84974226119 -11.2 -5.022 
735 0 4 0 -3.63730669589 -10.5 -5.022 
736 0 4 0 -3.63730669589 -9.1 -5.022 
737 0 4 0 -2.4248711306 -12.6 -5.022 
738 0 4 0 -2.4248711306 -11.2 -5.022 
739 0 4 0 -1.2124355653 -10.5 -5.022 
740 0 4 0 -1.2124355653 -9.1 -5.022 
741 0 4 0 0.0 -12.6 -5.022 
742 0 4 0 0.0 -11.2 -5.022 
743 0 4 0 1.2124355653 -10.5 -5.022 
744 0 4 0 1.2124355653 -9.1 -5.022 
745 0 4 0 2.4248711306 -12.6 -5.022 
746 0 4 0 2.4248711306 -11.2 -5.022 
747 0 4 0 3.63730669589 -10.5 -5.022 
748 0 4 0 3.63730669589 -9.1 -5.022 
749 0 4 0 4.84974226119 -12.6 -5.022 
750 0 4 0 4.84974226119 -11.2 -5.022 
751 0 4 0 6.06217782649 -10.5 -5.022 
752 0 4 0 6.06217782649 -9.1 -5.022 
753 0 4 0 7.27461339179 -12.6 -5.022 
754 0 4 0 7.27461339179 -11.2 -5.022 
755 0 4 0 8.48704895709 -10.5 -5.022 
756 0 4 0 8.48704895709 -9.1 -5.022 
757 0 4 0 9.69948452239 -12.6 -5.022 
758 0 4 0 9.69948452239 -11.2 -5.022 
759 0 4 0 10.9119200877 -10.5 -5.022 
760 0 4 0 10.9119200877 -9.1 -5.022 
761 0 4 0 -12.124355653 -8.4 -5.022 
762 0 4 0 -12.124355653 -7.0 -5.022 
763 0 4 0 -10.9119200877 -6.3 -5.022 
764 0 4 0 -10.9119200877 -4.9 -5.022 
765 0 4 0 -9.69948452239 -8.4 -5.022 
766 0 4 0 -9.69948452239 -7.0 -5.022 
767 0 4 0 -8.48704895709 -6.3 -5.022 
768 0 4 0 -8.48704895709 -4.9 -5.022 
769 0 4 0 -7.27461339179 -8.4 -5.022 
770 0 4 0 -7.27461339179 -7.0 -5.022 
771 0 4 0 -6.06217782649 -6.3 -5.022 
772 0 4 0 -6.06217782649 -4.9 -5.022 
773 0 4 0 -4.84974226119 -8.4 -5.022 
774 0 4 0 -4.84974226119 -7.0 -5.022 
775 0 4 0 -3.63730669589 -6.3 -5.022 
776 0 4 0 -3.63730669589 -4.9 -5.022 
777 0 4 0 -2.4248711306 -8.4 -5.022 
778 0 4 0 -2.4248711306 -7.0 -5.022 
779 0 4 0 -1.2124355653 -6.3 -5.022 
780 0 4 0 -1.2124355653 -4.9 -5.022 
781 0 4 0 0.0 -8.4 -5.022 
782 0 4 0 0.0 -7.0 -5.022 
783 0 4 0 1.2124355653 -6.3 -5.022 
784 0 4 0 1.2124355653 -4.9 -5.022 
785 0 4 0 2.4248711306 -8.4 -5.022 
786 0 4 0 2.4248711306 -7.0 -5.022 
787 0 4 0 3.63730669589 -6.3 -5.022 
788 0 4 0 3.63730669589 -4.9 -5.022 
789 0 4 0 4.84974226119 -8.4 -5.022 
790 0 4 0 4.84974226119 -7.0 -5.022 
791 0 4 0 6.06217782649 -6.3 -5.022 
792 0 4 0 6.06217782649 -4.9 -5.022 
793 0 4 0 7.27461339179 -8.4 -5.022 
794 0 4 0 7.27461339179 -7.0 -5.022 
795 0 4 0 8.48704895709 -6.3 -5.022 
796 0 4 0 8.48704895709 -4.9 -5.022 
797 0 4 0 9.69948452239 -8.4 -5.022 
798 0 4 0 9.69948452239 -7.0 -5.022 
799 0 4 0 10.9119200877 -6.3 -5.022 
800 0 4 0 10.9119200877 -4.9 -5.022 
801 0 4 0 -12.124355653 -4.2 -5.022 
802 0 4 0 -12.124355653 -2.8 -5.022 
803 0 4 0 -10.9119200877 -2.1 -5.022 
804 0 4 0 -10.9119200877 -0.7 -5.022 
805 0 4 0 -9.69948452239 -4.2 -5.022 
806 0 4 0 -9.69948452239 -2.8 -5.022 
807 0 4 0 -8.48704895709 -2.1 -5.022 
808 0 4 0 -8.48704895709 -0.7 -5.022 
809 0 4 0 -7.27461339179 -4.2 -5.022 
810 0 4 0 -7.27461339179 -2.8 -5.022 
811 0 4 0 -6.06217782649 -2.1 -5.022 
812 0 4 0 -6.06217782649 -0.7 -5.022 
813 0 4 0 -4.84974226119 -4.2 -5.022 
814 0 4 0 -4.84974226119 -2.8 -5.022 
815 0 4 0 -3.63730669589 -2.1 -5.022 
816 0 4 0 -3.63730669589 -0.7 -5.022 
817 0 4 0 -2.4248711306 -4.2 -5.022 
818 0 4 0 -2.4248711306 -2.8 -5.022 
819 0 4 0 -1.2124355653 -2.1 -5.022 
820 0 4 0 -1.2124355653 -0.7 -5.022 
821 0 4 0 0.0 -4.2 -5.022 
822 0 4 0 0.0 -2.8 -5.022 
823 0 4 0 1.2124355653 -2.1 -5.022 
824 0 4 0 1.2124355653 -0.7 -5.022 
825 0 4 0 2.4248711306 -4.2 -5.022 
826 0 4 0 2.4248711306 -2.8 -5.022 
827 0 4 0 3.63730669589 -2.1 -5.022 
828 0 4 0 3.63730669589 -0.7 -5.022 
829 0 4 0 4.84974226119 -4.2 -5.022 