# Data file LAMMPS

4992 atoms
2304 bonds
1152 angles

3 atom types
1 bond types
1 angle types

-14.7362882708 14.7362882708 xlo xhi 
-12.762 12.762 ylo yhi 
-58.605 58.605 zlo zhi 

Masses 
 
1 1.00794
2 15.9994
3 12.01

Atoms 
 
1 0 3 0 -14.7362882708 -12.762 -48.605 
2 0 3 0 -14.7362882708 -11.344 -48.605 
3 0 3 0 -13.5082642482 -10.635 -48.605 
4 0 3 0 -13.5082642482 -9.217 -48.605 
5 0 3 0 -12.2802402257 -12.762 -48.605 
6 0 3 0 -12.2802402257 -11.344 -48.605 
7 0 3 0 -11.0522162031 -10.635 -48.605 
8 0 3 0 -11.0522162031 -9.217 -48.605 
9 0 3 0 -9.82419218053 -12.762 -48.605 
10 0 3 0 -9.82419218053 -11.344 -48.605 
11 0 3 0 -8.59616815796 -10.635 -48.605 
12 0 3 0 -8.59616815796 -9.217 -48.605 
13 0 3 0 -7.3681441354 -12.762 -48.605 
14 0 3 0 -7.3681441354 -11.344 -48.605 
15 0 3 0 -6.14012011283 -10.635 -48.605 
16 0 3 0 -6.14012011283 -9.217 -48.605 
17 0 3 0 -4.91209609027 -12.762 -48.605 
18 0 3 0 -4.91209609027 -11.344 -48.605 
19 0 3 0 -3.6840720677 -10.635 -48.605 
20 0 3 0 -3.6840720677 -9.217 -48.605 
21 0 3 0 -2.45604804513 -12.762 -48.605 
22 0 3 0 -2.45604804513 -11.344 -48.605 
23 0 3 0 -1.22802402257 -10.635 -48.605 
24 0 3 0 -1.22802402257 -9.217 -48.605 
25 0 3 0 2.6645352591e-15 -12.762 -48.605 
26 0 3 0 2.6645352591e-15 -11.344 -48.605 
27 0 3 0 1.22802402257 -10.635 -48.605 
28 0 3 0 1.22802402257 -9.217 -48.605 
29 0 3 0 2.45604804513 -12.762 -48.605 
30 0 3 0 2.45604804513 -11.344 -48.605 
31 0 3 0 3.6840720677 -10.635 -48.605 
32 0 3 0 3.6840720677 -9.217 -48.605 
33 0 3 0 4.91209609027 -12.762 -48.605 
34 0 3 0 4.91209609027 -11.344 -48.605 
35 0 3 0 6.14012011283 -10.635 -48.605 
36 0 3 0 6.14012011283 -9.217 -48.605 
37 0 3 0 7.3681441354 -12.762 -48.605 
38 0 3 0 7.3681441354 -11.344 -48.605 
39 0 3 0 8.59616815796 -10.635 -48.605 
40 0 3 0 8.59616815796 -9.217 -48.605 
41 0 3 0 9.82419218053 -12.762 -48.605 
42 0 3 0 9.82419218053 -11.344 -48.605 
43 0 3 0 11.0522162031 -10.635 -48.605 
44 0 3 0 11.0522162031 -9.217 -48.605 
45 0 3 0 12.2802402257 -12.762 -48.605 
46 0 3 0 12.2802402257 -11.344 -48.605 
47 0 3 0 13.5082642482 -10.635 -48.605 
48 0 3 0 13.5082642482 -9.217 -48.605 
49 0 3 0 -14.7362882708 -8.508 -48.605 
50 0 3 0 -14.7362882708 -7.09 -48.605 
51 0 3 0 -13.5082642482 -6.381 -48.605 
52 0 3 0 -13.5082642482 -4.963 -48.605 
53 0 3 0 -12.2802402257 -8.508 -48.605 
54 0 3 0 -12.2802402257 -7.09 -48.605 
55 0 3 0 -11.0522162031 -6.381 -48.605 
56 0 3 0 -11.0522162031 -4.963 -48.605 
57 0 3 0 -9.82419218053 -8.508 -48.605 
58 0 3 0 -9.82419218053 -7.09 -48.605 
59 0 3 0 -8.59616815796 -6.381 -48.605 
60 0 3 0 -8.59616815796 -4.963 -48.605 
61 0 3 0 -7.3681441354 -8.508 -48.605 
62 0 3 0 -7.3681441354 -7.09 -48.605 
63 0 3 0 -6.14012011283 -6.381 -48.605 
64 0 3 0 -6.14012011283 -4.963 -48.605 
65 0 3 0 -4.91209609027 -8.508 -48.605 
66 0 3 0 -4.91209609027 -7.09 -48.605 
67 0 3 0 -3.6840720677 -6.381 -48.605 
68 0 3 0 -3.6840720677 -4.963 -48.605 
69 0 3 0 -2.45604804513 -8.508 -48.605 
70 0 3 0 -2.45604804513 -7.09 -48.605 
71 0 3 0 -1.22802402257 -6.381 -48.605 
72 0 3 0 -1.22802402257 -4.963 -48.605 
73 0 3 0 2.6645352591e-15 -8.508 -48.605 
74 0 3 0 2.6645352591e-15 -7.09 -48.605 
75 0 3 0 1.22802402257 -6.381 -48.605 
76 0 3 0 1.22802402257 -4.963 -48.605 
77 0 3 0 2.45604804513 -8.508 -48.605 
78 0 3 0 2.45604804513 -7.09 -48.605 
79 0 3 0 3.6840720677 -6.381 -48.605 
80 0 3 0 3.6840720677 -4.963 -48.605 
81 0 3 0 4.91209609027 -8.508 -48.605 
82 0 3 0 4.91209609027 -7.09 -48.605 
83 0 3 0 6.14012011283 -6.381 -48.605 
84 0 3 0 6.14012011283 -4.963 -48.605 
85 0 3 0 7.3681441354 -8.508 -48.605 
86 0 3 0 7.3681441354 -7.09 -48.605 
87 0 3 0 8.59616815796 -6.381 -48.605 
88 0 3 0 8.59616815796 -4.963 -48.605 
89 0 3 0 9.82419218053 -8.508 -48.605 
90 0 3 0 9.82419218053 -7.09 -48.605 
91 0 3 0 11.0522162031 -6.381 -48.605 
92 0 3 0 11.0522162031 -4.963 -48.605 
93 0 3 0 12.2802402257 -8.508 -48.605 
94 0 3 0 12.2802402257 -7.09 -48.605 
95 0 3 0 13.5082642482 -6.381 -48.605 
96 0 3 0 13.5082642482 -4.963 -48.605 
97 0 3 0 -14.7362882708 -4.254 -48.605 
98 0 3 0 -14.7362882708 -2.836 -48.605 
99 0 3 0 -13.5082642482 -2.127 -48.605 
100 0 3 0 -13.5082642482 -0.709 -48.605 
101 0 3 0 -12.2802402257 -4.254 -48.605 
102 0 3 0 -12.2802402257 -2.836 -48.605 
103 0 3 0 -11.0522162031 -2.127 -48.605 
104 0 3 0 -11.0522162031 -0.709 -48.605 
105 0 3 0 -9.82419218053 -4.254 -48.605 
106 0 3 0 -9.82419218053 -2.836 -48.605 
107 0 3 0 -8.59616815796 -2.127 -48.605 
108 0 3 0 -8.59616815796 -0.709 -48.605 
109 0 3 0 -7.3681441354 -4.254 -48.605 
110 0 3 0 -7.3681441354 -2.836 -48.605 
111 0 3 0 -6.14012011283 -2.127 -48.605 
112 0 3 0 -6.14012011283 -0.709 -48.605 
113 0 3 0 -4.91209609027 -4.254 -48.605 
114 0 3 0 -4.91209609027 -2.836 -48.605 
115 0 3 0 -3.6840720677 -2.127 -48.605 
116 0 3 0 -3.6840720677 -0.709 -48.605 
117 0 3 0 -2.45604804513 -4.254 -48.605 
118 0 3 0 -2.45604804513 -2.836 -48.605 
119 0 3 0 -1.22802402257 -2.127 -48.605 
120 0 3 0 -1.22802402257 -0.709 -48.605 
121 0 3 0 2.6645352591e-15 -4.254 -48.605 
122 0 3 0 2.6645352591e-15 -2.836 -48.605 
123 0 3 0 1.22802402257 -2.127 -48.605 
124 0 3 0 1.22802402257 -0.709 -48.605 
125 0 3 0 2.45604804513 -4.254 -48.605 
126 0 3 0 2.45604804513 -2.836 -48.605 
127 0 3 0 3.6840720677 -2.127 -48.605 
128 0 3 0 3.6840720677 -0.709 -48.605 
129 0 3 0 4.91209609027 -4.254 -48.605 
130 0 3 0 4.91209609027 -2.836 -48.605 
131 0 3 0 6.14012011283 -2.127 -48.605 
132 0 3 0 6.14012011283 -0.709 -48.605 
133 0 3 0 7.3681441354 -4.254 -48.605 
134 0 3 0 7.3681441354 -2.836 -48.605 
135 0 3 0 8.59616815796 -2.127 -48.605 
136 0 3 0 8.59616815796 -0.709 -48.605 
137 0 3 0 9.82419218053 -4.254 -48.605 
138 0 3 0 9.82419218053 -2.836 -48.605 
139 0 3 0 11.0522162031 -2.127 -48.605 
140 0 3 0 11.0522162031 -0.709 -48.605 
141 0 3 0 12.2802402257 -4.254 -48.605 
142 0 3 0 12.2802402257 -2.836 -48.605 
143 0 3 0 13.5082642482 -2.127 -48.605 
144 0 3 0 13.5082642482 -0.709 -48.605 
145 0 3 0 -14.7362882708 0.0 -48.605 
146 0 3 0 -14.7362882708 1.418 -48.605 
147 0 3 0 -13.5082642482 2.127 -48.605 
148 0 3 0 -13.5082642482 3.545 -48.605 
149 0 3 0 -12.2802402257 0.0 -48.605 
150 0 3 0 -12.2802402257 1.418 -48.605 
151 0 3 0 -11.0522162031 2.127 -48.605 
152 0 3 0 -11.0522162031 3.545 -48.605 
153 0 3 0 -9.82419218053 0.0 -48.605 
154 0 3 0 -9.82419218053 1.418 -48.605 
155 0 3 0 -8.59616815796 2.127 -48.605 
156 0 3 0 -8.59616815796 3.545 -48.605 
157 0 3 0 -7.3681441354 0.0 -48.605 
158 0 3 0 -7.3681441354 1.418 -48.605 
159 0 3 0 -6.14012011283 2.127 -48.605 
160 0 3 0 -6.14012011283 3.545 -48.605 
161 0 3 0 -4.91209609027 0.0 -48.605 
162 0 3 0 -4.91209609027 1.418 -48.605 
163 0 3 0 -3.6840720677 2.127 -48.605 
164 0 3 0 -3.6840720677 3.545 -48.605 
165 0 3 0 -2.45604804513 0.0 -48.605 
166 0 3 0 -2.45604804513 1.418 -48.605 
167 0 3 0 -1.22802402257 2.127 -48.605 
168 0 3 0 -1.22802402257 3.545 -48.605 
169 0 3 0 2.6645352591e-15 0.0 -48.605 
170 0 3 0 2.6645352591e-15 1.418 -48.605 
171 0 3 0 1.22802402257 2.127 -48.605 
172 0 3 0 1.22802402257 3.545 -48.605 
173 0 3 0 2.45604804513 0.0 -48.605 
174 0 3 0 2.45604804513 1.418 -48.605 
175 0 3 0 3.6840720677 2.127 -48.605 
176 0 3 0 3.6840720677 3.545 -48.605 
177 0 3 0 4.91209609027 0.0 -48.605 
178 0 3 0 4.91209609027 1.418 -48.605 
179 0 3 0 6.14012011283 2.127 -48.605 
180 0 3 0 6.14012011283 3.545 -48.605 
181 0 3 0 7.3681441354 0.0 -48.605 
182 0 3 0 7.3681441354 1.418 -48.605 
183 0 3 0 8.59616815796 2.127 -48.605 
184 0 3 0 8.59616815796 3.545 -48.605 
185 0 3 0 9.82419218053 0.0 -48.605 
186 0 3 0 9.82419218053 1.418 -48.605 
187 0 3 0 11.0522162031 2.127 -48.605 
188 0 3 0 11.0522162031 3.545 -48.605 
189 0 3 0 12.2802402257 0.0 -48.605 
190 0 3 0 12.2802402257 1.418 -48.605 
191 0 3 0 13.5082642482 2.127 -48.605 
192 0 3 0 13.5082642482 3.545 -48.605 
193 0 3 0 -14.7362882708 4.254 -48.605 
194 0 3 0 -14.7362882708 5.672 -48.605 
195 0 3 0 -13.5082642482 6.381 -48.605 
196 0 3 0 -13.5082642482 7.799 -48.605 
197 0 3 0 -12.2802402257 4.254 -48.605 
198 0 3 0 -12.2802402257 5.672 -48.605 
199 0 3 0 -11.0522162031 6.381 -48.605 
200 0 3 0 -11.0522162031 7.799 -48.605 
201 0 3 0 -9.82419218053 4.254 -48.605 
202 0 3 0 -9.82419218053 5.672 -48.605 
203 0 3 0 -8.59616815796 6.381 -48.605 
204 0 3 0 -8.59616815796 7.799 -48.605 
205 0 3 0 -7.3681441354 4.254 -48.605 
206 0 3 0 -7.3681441354 5.672 -48.605 
207 0 3 0 -6.14012011283 6.381 -48.605 
208 0 3 0 -6.14012011283 7.799 -48.605 
209 0 3 0 -4.91209609027 4.254 -48.605 
210 0 3 0 -4.91209609027 5.672 -48.605 
211 0 3 0 -3.6840720677 6.381 -48.605 
212 0 3 0 -3.6840720677 7.799 -48.605 
213 0 3 0 -2.45604804513 4.254 -48.605 
214 0 3 0 -2.45604804513 5.672 -48.605 
215 0 3 0 -1.22802402257 6.381 -48.605 
216 0 3 0 -1.22802402257 7.799 -48.605 
217 0 3 0 2.6645352591e-15 4.254 -48.605 
218 0 3 0 2.6645352591e-15 5.672 -48.605 
219 0 3 0 1.22802402257 6.381 -48.605 
220 0 3 0 1.22802402257 7.799 -48.605 
221 0 3 0 2.45604804513 4.254 -48.605 
222 0 3 0 2.45604804513 5.672 -48.605 
223 0 3 0 3.6840720677 6.381 -48.605 
224 0 3 0 3.6840720677 7.799 -48.605 
225 0 3 0 4.91209609027 4.254 -48.605 
226 0 3 0 4.91209609027 5.672 -48.605 
227 0 3 0 6.14012011283 6.381 -48.605 
228 0 3 0 6.14012011283 7.799 -48.605 
229 0 3 0 7.3681441354 4.254 -48.605 
230 0 3 0 7.3681441354 5.672 -48.605 
231 0 3 0 8.59616815796 6.381 -48.605 
232 0 3 0 8.59616815796 7.799 -48.605 
233 0 3 0 9.82419218053 4.254 -48.605 
234 0 3 0 9.82419218053 5.672 -48.605 
235 0 3 0 11.0522162031 6.381 -48.605 
236 0 3 0 11.0522162031 7.799 -48.605 
237 0 3 0 12.2802402257 4.254 -48.605 
238 0 3 0 12.2802402257 5.672 -48.605 
239 0 3 0 13.5082642482 6.381 -48.605 
240 0 3 0 13.5082642482 7.799 -48.605 
241 0 3 0 -14.7362882708 8.508 -48.605 
242 0 3 0 -14.7362882708 9.926 -48.605 
243 0 3 0 -13.5082642482 10.635 -48.605 
244 0 3 0 -13.5082642482 12.053 -48.605 
245 0 3 0 -12.2802402257 8.508 -48.605 
246 0 3 0 -12.2802402257 9.926 -48.605 
247 0 3 0 -11.0522162031 10.635 -48.605 
248 0 3 0 -11.0522162031 12.053 -48.605 
249 0 3 0 -9.82419218053 8.508 -48.605 
250 0 3 0 -9.82419218053 9.926 -48.605 
251 0 3 0 -8.59616815796 10.635 -48.605 
252 0 3 0 -8.59616815796 12.053 -48.605 
253 0 3 0 -7.3681441354 8.508 -48.605 
254 0 3 0 -7.3681441354 9.926 -48.605 
255 0 3 0 -6.14012011283 10.635 -48.605 
256 0 3 0 -6.14012011283 12.053 -48.605 
257 0 3 0 -4.91209609027 8.508 -48.605 
258 0 3 0 -4.91209609027 9.926 -48.605 
259 0 3 0 -3.6840720677 10.635 -48.605 
260 0 3 0 -3.6840720677 12.053 -48.605 
261 0 3 0 -2.45604804513 8.508 -48.605 
262 0 3 0 -2.45604804513 9.926 -48.605 
263 0 3 0 -1.22802402257 10.635 -48.605 
264 0 3 0 -1.22802402257 12.053 -48.605 
265 0 3 0 2.6645352591e-15 8.508 -48.605 
266 0 3 0 2.6645352591e-15 9.926 -48.605 
267 0 3 0 1.22802402257 10.635 -48.605 
268 0 3 0 1.22802402257 12.053 -48.605 
269 0 3 0 2.45604804513 8.508 -48.605 
270 0 3 0 2.45604804513 9.926 -48.605 
271 0 3 0 3.6840720677 10.635 -48.605 
272 0 3 0 3.6840720677 12.053 -48.605 
273 0 3 0 4.91209609027 8.508 -48.605 
274 0 3 0 4.91209609027 9.926 -48.605 
275 0 3 0 6.14012011283 10.635 -48.605 
276 0 3 0 6.14012011283 12.053 -48.605 
277 0 3 0 7.3681441354 8.508 -48.605 
278 0 3 0 7.3681441354 9.926 -48.605 
279 0 3 0 8.59616815796 10.635 -48.605 
280 0 3 0 8.59616815796 12.053 -48.605 
281 0 3 0 9.82419218053 8.508 -48.605 
282 0 3 0 9.82419218053 9.926 -48.605 
283 0 3 0 11.0522162031 10.635 -48.605 
284 0 3 0 11.0522162031 12.053 -48.605 
285 0 3 0 12.2802402257 8.508 -48.605 
286 0 3 0 12.2802402257 9.926 -48.605 
287 0 3 0 13.5082642482 10.635 -48.605 
288 0 3 0 13.5082642482 12.053 -48.605 
289 0 3 0 -14.7362882708 -12.762 -17.016 
290 0 3 0 -14.7362882708 -11.344 -17.016 
291 0 3 0 -13.5082642482 -10.635 -17.016 
292 0 3 0 -13.5082642482 -9.217 -17.016 
293 0 3 0 -12.2802402257 -12.762 -17.016 
294 0 3 0 -12.2802402257 -11.344 -17.016 
295 0 3 0 -11.0522162031 -10.635 -17.016 
296 0 3 0 -11.0522162031 -9.217 -17.016 
297 0 3 0 -9.82419218053 -12.762 -17.016 
298 0 3 0 -9.82419218053 -11.344 -17.016 
299 0 3 0 -8.59616815796 -10.635 -17.016 
300 0 3 0 -8.59616815796 -9.217 -17.016 
301 0 3 0 -7.3681441354 -12.762 -17.016 
302 0 3 0 -7.3681441354 -11.344 -17.016 
303 0 3 0 -6.14012011283 -10.635 -17.016 
304 0 3 0 -6.14012011283 -9.217 -17.016 
305 0 3 0 -4.91209609027 -12.762 -17.016 
306 0 3 0 -4.91209609027 -11.344 -17.016 
307 0 3 0 -3.6840720677 -10.635 -17.016 
308 0 3 0 -3.6840720677 -9.217 -17.016 
309 0 3 0 -2.45604804513 -12.762 -17.016 
310 0 3 0 -2.45604804513 -11.344 -17.016 
311 0 3 0 -1.22802402257 -10.635 -17.016 
312 0 3 0 -1.22802402257 -9.217 -17.016 
313 0 3 0 2.6645352591e-15 -12.762 -17.016 
314 0 3 0 2.6645352591e-15 -11.344 -17.016 
315 0 3 0 1.22802402257 -10.635 -17.016 
316 0 3 0 1.22802402257 -9.217 -17.016 
317 0 3 0 2.45604804513 -12.762 -17.016 
318 0 3 0 2.45604804513 -11.344 -17.016 
319 0 3 0 3.6840720677 -10.635 -17.016 
320 0 3 0 3.6840720677 -9.217 -17.016 
321 0 3 0 4.91209609027 -12.762 -17.016 
322 0 3 0 4.91209609027 -11.344 -17.016 
323 0 3 0 6.14012011283 -10.635 -17.016 
324 0 3 0 6.14012011283 -9.217 -17.016 
325 0 3 0 7.3681441354 -12.762 -17.016 
326 0 3 0 7.3681441354 -11.344 -17.016 
327 0 3 0 8.59616815796 -10.635 -17.016 
328 0 3 0 8.59616815796 -9.217 -17.016 
329 0 3 0 9.82419218053 -12.762 -17.016 
330 0 3 0 9.82419218053 -11.344 -17.016 
331 0 3 0 11.0522162031 -10.635 -17.016 
332 0 3 0 11.0522162031 -9.217 -17.016 
333 0 3 0 12.2802402257 -12.762 -17.016 
334 0 3 0 12.2802402257 -11.344 -17.016 
335 0 3 0 13.5082642482 -10.635 -17.016 
336 0 3 0 13.5082642482 -9.217 -17.016 
337 0 3 0 -14.7362882708 -8.508 -17.016 
338 0 3 0 -14.7362882708 -7.09 -17.016 
339 0 3 0 -13.5082642482 -6.381 -17.016 
340 0 3 0 -13.5082642482 -4.963 -17.016 
341 0 3 0 -12.2802402257 -8.508 -17.016 
342 0 3 0 -12.2802402257 -7.09 -17.016 
343 0 3 0 -11.0522162031 -6.381 -17.016 
344 0 3 0 -11.0522162031 -4.963 -17.016 
345 0 3 0 -9.82419218053 -8.508 -17.016 
346 0 3 0 -9.82419218053 -7.09 -17.016 
347 0 3 0 -8.59616815796 -6.381 -17.016 
348 0 3 0 -8.59616815796 -4.963 -17.016 
349 0 3 0 -7.3681441354 -8.508 -17.016 
350 0 3 0 -7.3681441354 -7.09 -17.016 
351 0 3 0 -6.14012011283 -6.381 -17.016 
352 0 3 0 -6.14012011283 -4.963 -17.016 
353 0 3 0 -4.91209609027 -8.508 -17.016 
354 0 3 0 -4.91209609027 -7.09 -17.016 
355 0 3 0 -3.6840720677 -6.381 -17.016 
356 0 3 0 -3.6840720677 -4.963 -17.016 
357 0 3 0 -2.45604804513 -8.508 -17.016 
358 0 3 0 -2.45604804513 -7.09 -17.016 
359 0 3 0 -1.22802402257 -6.381 -17.016 
360 0 3 0 -1.22802402257 -4.963 -17.016 
361 0 3 0 2.6645352591e-15 -8.508 -17.016 
362 0 3 0 2.6645352591e-15 -7.09 -17.016 
363 0 3 0 1.22802402257 -6.381 -17.016 
364 0 3 0 1.22802402257 -4.963 -17.016 
365 0 3 0 2.45604804513 -8.508 -17.016 
366 0 3 0 2.45604804513 -7.09 -17.016 
367 0 3 0 3.6840720677 -6.381 -17.016 
368 0 3 0 3.6840720677 -4.963 -17.016 
369 0 3 0 4.91209609027 -8.508 -17.016 
370 0 3 0 4.91209609027 -7.09 -17.016 
371 0 3 0 6.14012011283 -6.381 -17.016 
372 0 3 0 6.14012011283 -4.963 -17.016 
373 0 3 0 7.3681441354 -8.508 -17.016 
374 0 3 0 7.3681441354 -7.09 -17.016 
375 0 3 0 8.59616815796 -6.381 -17.016 
376 0 3 0 8.59616815796 -4.963 -17.016 
377 0 3 0 9.82419218053 -8.508 -17.016 
378 0 3 0 9.82419218053 -7.09 -17.016 
379 0 3 0 11.0522162031 -6.381 -17.016 
380 0 3 0 11.0522162031 -4.963 -17.016 
381 0 3 0 12.2802402257 -8.508 -17.016 
382 0 3 0 12.2802402257 -7.09 -17.016 
383 0 3 0 13.5082642482 -6.381 -17.016 
384 0 3 0 13.5082642482 -4.963 -17.016 
385 0 3 0 -14.7362882708 -4.254 -17.016 
386 0 3 0 -14.7362882708 -2.836 -17.016 
387 0 3 0 -13.5082642482 -2.127 -17.016 
388 0 3 0 -13.5082642482 -0.709 -17.016 
389 0 3 0 -12.2802402257 -4.254 -17.016 
390 0 3 0 -12.2802402257 -2.836 -17.016 
391 0 3 0 -11.0522162031 -2.127 -17.016 
392 0 3 0 -11.0522162031 -0.709 -17.016 
393 0 3 0 -9.82419218053 -4.254 -17.016 
394 0 3 0 -9.82419218053 -2.836 -17.016 
395 0 3 0 -8.59616815796 -2.127 -17.016 
396 0 3 0 -8.59616815796 -0.709 -17.016 
397 0 3 0 -7.3681441354 -4.254 -17.016 
398 0 3 0 -7.3681441354 -2.836 -17.016 
399 0 3 0 -6.14012011283 -2.127 -17.016 
400 0 3 0 -6.14012011283 -0.709 -17.016 
401 0 3 0 -4.91209609027 -4.254 -17.016 
402 0 3 0 -4.91209609027 -2.836 -17.016 
403 0 3 0 -3.6840720677 -2.127 -17.016 
404 0 3 0 -3.6840720677 -0.709 -17.016 
405 0 3 0 -2.45604804513 -4.254 -17.016 
406 0 3 0 -2.45604804513 -2.836 -17.016 
407 0 3 0 -1.22802402257 -2.127 -17.016 
408 0 3 0 -1.22802402257 -0.709 -17.016 
409 0 3 0 2.6645352591e-15 -4.254 -17.016 
410 0 3 0 2.6645352591e-15 -2.836 -17.016 
411 0 3 0 1.22802402257 -2.127 -17.016 
412 0 3 0 1.22802402257 -0.709 -17.016 
413 0 3 0 2.45604804513 -4.254 -17.016 
414 0 3 0 2.45604804513 -2.836 -17.016 
415 0 3 0 3.6840720677 -2.127 -17.016 
416 0 3 0 3.6840720677 -0.709 -17.016 
417 0 3 0 4.91209609027 -4.254 -17.016 
418 0 3 0 4.91209609027 -2.836 -17.016 
419 0 3 0 6.14012011283 -2.127 -17.016 
420 0 3 0 6.14012011283 -0.709 -17.016 
421 0 3 0 7.3681441354 -4.254 -17.016 
422 0 3 0 7.3681441354 -2.836 -17.016 
423 0 3 0 8.59616815796 -2.127 -17.016 
424 0 3 0 8.59616815796 -0.709 -17.016 
425 0 3 0 9.82419218053 -4.254 -17.016 
426 0 3 0 9.82419218053 -2.836 -17.016 
427 0 3 0 11.0522162031 -2.127 -17.016 
428 0 3 0 11.0522162031 -0.709 -17.016 
429 0 3 0 12.2802402257 -4.254 -17.016 
430 0 3 0 12.2802402257 -2.836 -17.016 
431 0 3 0 13.5082642482 -2.127 -17.016 
432 0 3 0 13.5082642482 -0.709 -17.016 
433 0 3 0 -14.7362882708 0.0 -17.016 
434 0 3 0 -14.7362882708 1.418 -17.016 
435 0 3 0 -13.5082642482 2.127 -17.016 
436 0 3 0 -13.5082642482 3.545 -17.016 
437 0 3 0 -12.2802402257 0.0 -17.016 
438 0 3 0 -12.2802402257 1.418 -17.016 
439 0 3 0 -11.0522162031 2.127 -17.016 
440 0 3 0 -11.0522162031 3.545 -17.016 
441 0 3 0 -9.82419218053 0.0 -17.016 
442 0 3 0 -9.82419218053 1.418 -17.016 
443 0 3 0 -8.59616815796 2.127 -17.016 
444 0 3 0 -8.59616815796 3.545 -17.016 
445 0 3 0 -7.3681441354 0.0 -17.016 
446 0 3 0 -7.3681441354 1.418 -17.016 
447 0 3 0 -6.14012011283 2.127 -17.016 
448 0 3 0 -6.14012011283 3.545 -17.016 
449 0 3 0 -4.91209609027 0.0 -17.016 
450 0 3 0 -4.91209609027 1.418 -17.016 
451 0 3 0 -3.6840720677 2.127 -17.016 
452 0 3 0 -3.6840720677 3.545 -17.016 
453 0 3 0 -2.45604804513 0.0 -17.016 
454 0 3 0 -2.45604804513 1.418 -17.016 
455 0 3 0 -1.22802402257 2.127 -17.016 
456 0 3 0 -1.22802402257 3.545 -17.016 
457 0 3 0 2.6645352591e-15 0.0 -17.016 
458 0 3 0 2.6645352591e-15 1.418 -17.016 
459 0 3 0 1.22802402257 2.127 -17.016 
460 0 3 0 1.22802402257 3.545 -17.016 
461 0 3 0 2.45604804513 0.0 -17.016 
462 0 3 0 2.45604804513 1.418 -17.016 
463 0 3 0 3.6840720677 2.127 -17.016 
464 0 3 0 3.6840720677 3.545 -17.016 
465 0 3 0 4.91209609027 0.0 -17.016 
466 0 3 0 4.91209609027 1.418 -17.016 
467 0 3 0 6.14012011283 2.127 -17.016 
468 0 3 0 6.14012011283 3.545 -17.016 
469 0 3 0 7.3681441354 0.0 -17.016 
470 0 3 0 7.3681441354 1.418 -17.016 
471 0 3 0 8.59616815796 2.127 -17.016 
472 0 3 0 8.59616815796 3.545 -17.016 
473 0 3 0 9.82419218053 0.0 -17.016 
474 0 3 0 9.82419218053 1.418 -17.016 
475 0 3 0 11.0522162031 2.127 -17.016 
476 0 3 0 11.0522162031 3.545 -17.016 
477 0 3 0 12.2802402257 0.0 -17.016 
478 0 3 0 12.2802402257 1.418 -17.016 
479 0 3 0 13.5082642482 2.127 -17.016 
480 0 3 0 13.5082642482 3.545 -17.016 
481 0 3 0 -14.7362882708 4.254 -17.016 
482 0 3 0 -14.7362882708 5.672 -17.016 
483 0 3 0 -13.5082642482 6.381 -17.016 
484 0 3 0 -13.5082642482 7.799 -17.016 
485 0 3 0 -12.2802402257 4.254 -17.016 
486 0 3 0 -12.2802402257 5.672 -17.016 
487 0 3 0 -11.0522162031 6.381 -17.016 
488 0 3 0 -11.0522162031 7.799 -17.016 
489 0 3 0 -9.82419218053 4.254 -17.016 
490 0 3 0 -9.82419218053 5.672 -17.016 
491 0 3 0 -8.59616815796 6.381 -17.016 
492 0 3 0 -8.59616815796 7.799 -17.016 
493 0 3 0 -7.3681441354 4.254 -17.016 
494 0 3 0 -7.3681441354 5.672 -17.016 
495 0 3 0 -6.14012011283 6.381 -17.016 
496 0 3 0 -6.14012011283 7.799 -17.016 
497 0 3 0 -4.91209609027 4.254 -17.016 
498 0 3 0 -4.91209609027 5.672 -17.016 
499 0 3 0 -3.6840720677 6.381 -17.016 
500 0 3 0 -3.6840720677 7.799 -17.016 
501 0 3 0 -2.45604804513 4.254 -17.016 
502 0 3 0 -2.45604804513 5.672 -17.016 
503 0 3 0 -1.22802402257 6.381 -17.016 
504 0 3 0 -1.22802402257 7.799 -17.016 
505 0 3 0 2.6645352591e-15 4.254 -17.016 
506 0 3 0 2.6645352591e-15 5.672 -17.016 
507 0 3 0 1.22802402257 6.381 -17.016 
508 0 3 0 1.22802402257 7.799 -17.016 
509 0 3 0 2.45604804513 4.254 -17.016 
510 0 3 0 2.45604804513 5.672 -17.016 
511 0 3 0 3.6840720677 6.381 -17.016 
512 0 3 0 3.6840720677 7.799 -17.016 
513 0 3 0 4.91209609027 4.254 -17.016 
514 0 3 0 4.91209609027 5.672 -17.016 
515 0 3 0 6.14012011283 6.381 -17.016 
516 0 3 0 6.14012011283 7.799 -17.016 
517 0 3 0 7.3681441354 4.254 -17.016 
518 0 3 0 7.3681441354 5.672 -17.016 
519 0 3 0 8.59616815796 6.381 -17.016 
520 0 3 0 8.59616815796 7.799 -17.016 
521 0 3 0 9.82419218053 4.254 -17.016 
522 0 3 0 9.82419218053 5.672 -17.016 
523 0 3 0 11.0522162031 6.381 -17.016 
524 0 3 0 11.0522162031 7.799 -17.016 
525 0 3 0 12.2802402257 4.254 -17.016 
526 0 3 0 12.2802402257 5.672 -17.016 
527 0 3 0 13.5082642482 6.381 -17.016 
528 0 3 0 13.5082642482 7.799 -17.016 
529 0 3 0 -14.7362882708 8.508 -17.016 
530 0 3 0 -14.7362882708 9.926 -17.016 
531 0 3 0 -13.5082642482 10.635 -17.016 
532 0 3 0 -13.5082642482 12.053 -17.016 
533 0 3 0 -12.2802402257 8.508 -17.016 
534 0 3 0 -12.2802402257 9.926 -17.016 
535 0 3 0 -11.0522162031 10.635 -17.016 
536 0 3 0 -11.0522162031 12.053 -17.016 
537 0 3 0 -9.82419218053 8.508 -17.016 
538 0 3 0 -9.82419218053 9.926 -17.016 
539 0 3 0 -8.59616815796 10.635 -17.016 
540 0 3 0 -8.59616815796 12.053 -17.016 
541 0 3 0 -7.3681441354 8.508 -17.016 
542 0 3 0 -7.3681441354 9.926 -17.016 
543 0 3 0 -6.14012011283 10.635 -17.016 
544 0 3 0 -6.14012011283 12.053 -17.016 
545 0 3 0 -4.91209609027 8.508 -17.016 
546 0 3 0 -4.91209609027 9.926 -17.016 
547 0 3 0 -3.6840720677 10.635 -17.016 
548 0 3 0 -3.6840720677 12.053 -17.016 
549 0 3 0 -2.45604804513 8.508 -17.016 
550 0 3 0 -2.45604804513 9.926 -17.016 
551 0 3 0 -1.22802402257 10.635 -17.016 
552 0 3 0 -1.22802402257 12.053 -17.016 
553 0 3 0 2.6645352591e-15 8.508 -17.016 
554 0 3 0 2.6645352591e-15 9.926 -17.016 
555 0 3 0 1.22802402257 10.635 -17.016 
556 0 3 0 1.22802402257 12.053 -17.016 
557 0 3 0 2.45604804513 8.508 -17.016 
558 0 3 0 2.45604804513 9.926 -17.016 
559 0 3 0 3.6840720677 10.635 -17.016 
560 0 3 0 3.6840720677 12.053 -17.016 
561 0 3 0 4.91209609027 8.508 -17.016 
562 0 3 0 4.91209609027 9.926 -17.016 
563 0 3 0 6.14012011283 10.635 -17.016 
564 0 3 0 6.14012011283 12.053 -17.016 
565 0 3 0 7.3681441354 8.508 -17.016 
566 0 3 0 7.3681441354 9.926 -17.016 
567 0 3 0 8.59616815796 10.635 -17.016 
568 0 3 0 8.59616815796 12.053 -17.016 
569 0 3 0 9.82419218053 8.508 -17.016 
570 0 3 0 9.82419218053 9.926 -17.016 
571 0 3 0 11.0522162031 10.635 -17.016 
572 0 3 0 11.0522162031 12.053 -17.016 
573 0 3 0 12.2802402257 8.508 -17.016 
574 0 3 0 12.2802402257 9.926 -17.016 
575 0 3 0 13.5082642482 10.635 -17.016 
576 0 3 0 13.5082642482 12.053 -17.016 
577 0 3 0 -14.7362882708 -12.762 17.016 
578 0 3 0 -14.7362882708 -11.344 17.016 
579 0 3 0 -13.5082642482 -10.635 17.016 
580 0 3 0 -13.5082642482 -9.217 17.016 
581 0 3 0 -12.2802402257 -12.762 17.016 
582 0 3 0 -12.2802402257 -11.344 17.016 
583 0 3 0 -11.0522162031 -10.635 17.016 
584 0 3 0 -11.0522162031 -9.217 17.016 
585 0 3 0 -9.82419218053 -12.762 17.016 
586 0 3 0 -9.82419218053 -11.344 17.016 
587 0 3 0 -8.59616815796 -10.635 17.016 
588 0 3 0 -8.59616815796 -9.217 17.016 
589 0 3 0 -7.3681441354 -12.762 17.016 
590 0 3 0 -7.3681441354 -11.344 17.016 
591 0 3 0 -6.14012011283 -10.635 17.016 
592 0 3 0 -6.14012011283 -9.217 17.016 
593 0 3 0 -4.91209609027 -12.762 17.016 
594 0 3 0 -4.91209609027 -11.344 17.016 
595 0 3 0 -3.6840720677 -10.635 17.016 
596 0 3 0 -3.6840720677 -9.217 17.016 
597 0 3 0 -2.45604804513 -12.762 17.016 
598 0 3 0 -2.45604804513 -11.344 17.016 
599 0 3 0 -1.22802402257 -10.635 17.016 
600 0 3 0 -1.22802402257 -9.217 17.016 
601 0 3 0 2.6645352591e-15 -12.762 17.016 
602 0 3 0 2.6645352591e-15 -11.344 17.016 
603 0 3 0 1.22802402257 -10.635 17.016 
604 0 3 0 1.22802402257 -9.217 17.016 
605 0 3 0 2.45604804513 -12.762 17.016 
606 0 3 0 2.45604804513 -11.344 17.016 
607 0 3 0 3.6840720677 -10.635 17.016 
608 0 3 0 3.6840720677 -9.217 17.016 
609 0 3 0 4.91209609027 -12.762 17.016 
610 0 3 0 4.91209609027 -11.344 17.016 
611 0 3 0 6.14012011283 -10.635 17.016 
612 0 3 0 6.14012011283 -9.217 17.016 
613 0 3 0 7.3681441354 -12.762 17.016 
614 0 3 0 7.3681441354 -11.344 17.016 
615 0 3 0 8.59616815796 -10.635 17.016 
616 0 3 0 8.59616815796 -9.217 17.016 
617 0 3 0 9.82419218053 -12.762 17.016 
618 0 3 0 9.82419218053 -11.344 17.016 
619 0 3 0 11.0522162031 -10.635 17.016 
620 0 3 0 11.0522162031 -9.217 17.016 
621 0 3 0 12.2802402257 -12.762 17.016 
622 0 3 0 12.2802402257 -11.344 17.016 
623 0 3 0 13.5082642482 -10.635 17.016 
624 0 3 0 13.5082642482 -9.217 17.016 
625 0 3 0 -14.7362882708 -8.508 17.016 
626 0 3 0 -14.7362882708 -7.09 17.016 
627 0 3 0 -13.5082642482 -6.381 17.016 
628 0 3 0 -13.5082642482 -4.963 17.016 
629 0 3 0 -12.2802402257 -8.508 17.016 
630 0 3 0 -12.2802402257 -7.09 17.016 
631 0 3 0 -11.0522162031 -6.381 17.016 
632 0 3 0 -11.0522162031 -4.963 17.016 
633 0 3 0 -9.82419218053 -8.508 17.016 
634 0 3 0 -9.82419218053 -7.09 17.016 
635 0 3 0 -8.59616815796 -6.381 17.016 
636 0 3 0 -8.59616815796 -4.963 17.016 
637 0 3 0 -7.3681441354 -8.508 17.016 
638 0 3 0 -7.3681441354 -7.09 17.016 
639 0 3 0 -6.14012011283 -6.381 17.016 
640 0 3 0 -6.14012011283 -4.963 17.016 
641 0 3 0 -4.91209609027 -8.508 17.016 
642 0 3 0 -4.91209609027 -7.09 17.016 
643 0 3 0 -3.6840720677 -6.381 17.016 
644 0 3 0 -3.6840720677 -4.963 17.016 
645 0 3 0 -2.45604804513 -8.508 17.016 
646 0 3 0 -2.45604804513 -7.09 17.016 
647 0 3 0 -1.22802402257 -6.381 17.016 
648 0 3 0 -1.22802402257 -4.963 17.016 
649 0 3 0 2.6645352591e-15 -8.508 17.016 
650 0 3 0 2.6645352591e-15 -7.09 17.016 
651 0 3 0 1.22802402257 -6.381 17.016 
652 0 3 0 1.22802402257 -4.963 17.016 
653 0 3 0 2.45604804513 -8.508 17.016 
654 0 3 0 2.45604804513 -7.09 17.016 
655 0 3 0 3.6840720677 -6.381 17.016 
656 0 3 0 3.6840720677 -4.963 17.016 
657 0 3 0 4.91209609027 -8.508 17.016 
658 0 3 0 4.91209609027 -7.09 17.016 
659 0 3 0 6.14012011283 -6.381 17.016 
660 0 3 0 6.14012011283 -4.963 17.016 
661 0 3 0 7.3681441354 -8.508 17.016 
662 0 3 0 7.3681441354 -7.09 17.016 
663 0 3 0 8.59616815796 -6.381 17.016 
664 0 3 0 8.59616815796 -4.963 17.016 
665 0 3 0 9.82419218053 -8.508 17.016 
666 0 3 0 9.82419218053 -7.09 17.016 
667 0 3 0 11.0522162031 -6.381 17.016 
668 0 3 0 11.0522162031 -4.963 17.016 
669 0 3 0 12.2802402257 -8.508 17.016 
670 0 3 0 12.2802402257 -7.09 17.016 
671 0 3 0 13.5082642482 -6.381 17.016 
672 0 3 0 13.5082642482 -4.963 17.016 
673 0 3 0 -14.7362882708 -4.254 17.016 
674 0 3 0 -14.7362882708 -2.836 17.016 
675 0 3 0 -13.5082642482 -2.127 17.016 
676 0 3 0 -13.5082642482 -0.709 17.016 
677 0 3 0 -12.2802402257 -4.254 17.016 
678 0 3 0 -12.2802402257 -2.836 17.016 
679 0 3 0 -11.0522162031 -2.127 17.016 
680 0 3 0 -11.0522162031 -0.709 17.016 
681 0 3 0 -9.82419218053 -4.254 17.016 
682 0 3 0 -9.82419218053 -2.836 17.016 
683 0 3 0 -8.59616815796 -2.127 17.016 
684 0 3 0 -8.59616815796 -0.709 17.016 
685 0 3 0 -7.3681441354 -4.254 17.016 
686 0 3 0 -7.3681441354 -2.836 17.016 
687 0 3 0 -6.14012011283 -2.127 17.016 
688 0 3 0 -6.14012011283 -0.709 17.016 
689 0 3 0 -4.91209609027 -4.254 17.016 
690 0 3 0 -4.91209609027 -2.836 17.016 
691 0 3 0 -3.6840720677 -2.127 17.016 
692 0 3 0 -3.6840720677 -0.709 17.016 
693 0 3 0 -2.45604804513 -4.254 17.016 
694 0 3 0 -2.45604804513 -2.836 17.016 
695 0 3 0 -1.22802402257 -2.127 17.016 
696 0 3 0 -1.22802402257 -0.709 17.016 
697 0 3 0 2.6645352591e-15 -4.254 17.016 
698 0 3 0 2.6645352591e-15 -2.836 17.016 
699 0 3 0 1.22802402257 -2.127 17.016 
700 0 3 0 1.22802402257 -0.709 17.016 
701 0 3 0 2.45604804513 -4.254 17.016 
702 0 3 0 2.45604804513 -2.836 17.016 
703 0 3 0 3.6840720677 -2.127 17.016 
704 0 3 0 3.6840720677 -0.709 17.016 
705 0 3 0 4.91209609027 -4.254 17.016 
706 0 3 0 4.91209609027 -2.836 17.016 
707 0 3 0 6.14012011283 -2.127 17.016 
708 0 3 0 6.14012011283 -0.709 17.016 
709 0 3 0 7.3681441354 -4.254 17.016 
710 0 3 0 7.3681441354 -2.836 17.016 
711 0 3 0 8.59616815796 -2.127 17.016 
712 0 3 0 8.59616815796 -0.709 17.016 
713 0 3 0 9.82419218053 -4.254 17.016 
714 0 3 0 9.82419218053 -2.836 17.016 
715 0 3 0 11.0522162031 -2.127 17.016 
716 0 3 0 11.0522162031 -0.709 17.016 
717 0 3 0 12.2802402257 -4.254 17.016 
718 0 3 0 12.2802402257 -2.836 17.016 
719 0 3 0 13.5082642482 -2.127 17.016 
720 0 3 0 13.5082642482 -0.709 17.016 
721 0 3 0 -14.7362882708 0.0 17.016 
722 0 3 0 -14.7362882708 1.418 17.016 
723 0 3 0 -13.5082642482 2.127 17.016 
724 0 3 0 -13.5082642482 3.545 17.016 
725 0 3 0 -12.2802402257 0.0 17.016 
726 0 3 0 -12.2802402257 1.418 17.016 
727 0 3 0 -11.0522162031 2.127 17.016 
728 0 3 0 -11.0522162031 3.545 17.016 
729 0 3 0 -9.82419218053 0.0 17.016 
730 0 3 0 -9.82419218053 1.418 17.016 
731 0 3 0 -8.59616815796 2.127 17.016 
732 0 3 0 -8.59616815796 3.545 17.016 
733 0 3 0 -7.3681441354 0.0 17.016 
734 0 3 0 -7.3681441354 1.418 17.016 
735 0 3 0 -6.14012011283 2.127 17.016 
736 0 3 0 -6.14012011283 3.545 17.016 
737 0 3 0 -4.91209609027 0.0 17.016 
738 0 3 0 -4.91209609027 1.418 17.016 
739 0 3 0 -3.6840720677 2.127 17.016 
740 0 3 0 -3.6840720677 3.545 17.016 
741 0 3 0 -2.45604804513 0.0 17.016 
742 0 3 0 -2.45604804513 1.418 17.016 
743 0 3 0 -1.22802402257 2.127 17.016 
744 0 3 0 -1.22802402257 3.545 17.016 
745 0 3 0 2.6645352591e-15 0.0 17.016 
746 0 3 0 2.6645352591e-15 1.418 17.016 
747 0 3 0 1.22802402257 2.127 17.016 
748 0 3 0 1.22802402257 3.545 17.016 