#  Sampson

4860 atoms
3240 bonds
1620 angles

2 atom types
1 bond types
1 angle types

# membrane 
 
-30.6 30.6 xlo xhi 
-30.6 30.6 ylo yhi 
-30 30 zlo zhi 

Masses 
 
1 16.0
2 1.008

Atoms 
 
1 1 1 -1.1128 -28.9 -28.9 -8
2 1 2 0.5564 -27.9428 -28.9 -8
3 1 2 0.5564 -29.1399872084 -27.9733727935 -8
4 2 1 -1.1128 -25.5 -28.9 -8
5 2 2 0.5564 -24.5428 -28.9 -8
6 2 2 0.5564 -25.7399872084 -27.9733727935 -8
7 3 1 -1.1128 -22.1 -28.9 -8
8 3 2 0.5564 -21.1428 -28.9 -8
9 3 2 0.5564 -22.3399872084 -27.9733727935 -8
10 4 1 -1.1128 -18.7 -28.9 -8
11 4 2 0.5564 -17.7428 -28.9 -8
12 4 2 0.5564 -18.9399872084 -27.9733727935 -8
13 5 1 -1.1128 -15.3 -28.9 -8
14 5 2 0.5564 -14.3428 -28.9 -8
15 5 2 0.5564 -15.5399872084 -27.9733727935 -8
16 6 1 -1.1128 -11.9 -28.9 -8
17 6 2 0.5564 -10.9428 -28.9 -8
18 6 2 0.5564 -12.1399872084 -27.9733727935 -8
19 7 1 -1.1128 -8.5 -28.9 -8
20 7 2 0.5564 -7.5428 -28.9 -8
21 7 2 0.5564 -8.73998720841 -27.9733727935 -8
22 8 1 -1.1128 -5.1 -28.9 -8
23 8 2 0.5564 -4.1428 -28.9 -8
24 8 2 0.5564 -5.33998720841 -27.9733727935 -8
25 9 1 -1.1128 -1.7 -28.9 -8
26 9 2 0.5564 -0.7428 -28.9 -8
27 9 2 0.5564 -1.93998720841 -27.9733727935 -8
28 10 1 -1.1128 1.7 -28.9 -8
29 10 2 0.5564 2.6572 -28.9 -8
30 10 2 0.5564 1.46001279159 -27.9733727935 -8
31 11 1 -1.1128 5.1 -28.9 -8
32 11 2 0.5564 6.0572 -28.9 -8
33 11 2 0.5564 4.86001279159 -27.9733727935 -8
34 12 1 -1.1128 8.5 -28.9 -8
35 12 2 0.5564 9.4572 -28.9 -8
36 12 2 0.5564 8.26001279159 -27.9733727935 -8
37 13 1 -1.1128 11.9 -28.9 -8
38 13 2 0.5564 12.8572 -28.9 -8
39 13 2 0.5564 11.6600127916 -27.9733727935 -8
40 14 1 -1.1128 15.3 -28.9 -8
41 14 2 0.5564 16.2572 -28.9 -8
42 14 2 0.5564 15.0600127916 -27.9733727935 -8
43 15 1 -1.1128 18.7 -28.9 -8
44 15 2 0.5564 19.6572 -28.9 -8
45 15 2 0.5564 18.4600127916 -27.9733727935 -8
46 16 1 -1.1128 22.1 -28.9 -8
47 16 2 0.5564 23.0572 -28.9 -8
48 16 2 0.5564 21.8600127916 -27.9733727935 -8
49 17 1 -1.1128 25.5 -28.9 -8
50 17 2 0.5564 26.4572 -28.9 -8
51 17 2 0.5564 25.2600127916 -27.9733727935 -8
52 18 1 -1.1128 28.9 -28.9 -8
53 18 2 0.5564 29.8572 -28.9 -8
54 18 2 0.5564 28.6600127916 -27.9733727935 -8
55 19 1 -1.1128 -28.9 -25.5 -8
56 19 2 0.5564 -27.9428 -25.5 -8
57 19 2 0.5564 -29.1399872084 -24.5733727935 -8
58 20 1 -1.1128 -25.5 -25.5 -8
59 20 2 0.5564 -24.5428 -25.5 -8
60 20 2 0.5564 -25.7399872084 -24.5733727935 -8
61 21 1 -1.1128 -22.1 -25.5 -8
62 21 2 0.5564 -21.1428 -25.5 -8
63 21 2 0.5564 -22.3399872084 -24.5733727935 -8
64 22 1 -1.1128 -18.7 -25.5 -8
65 22 2 0.5564 -17.7428 -25.5 -8
66 22 2 0.5564 -18.9399872084 -24.5733727935 -8
67 23 1 -1.1128 -15.3 -25.5 -8
68 23 2 0.5564 -14.3428 -25.5 -8
69 23 2 0.5564 -15.5399872084 -24.5733727935 -8
70 24 1 -1.1128 -11.9 -25.5 -8
71 24 2 0.5564 -10.9428 -25.5 -8
72 24 2 0.5564 -12.1399872084 -24.5733727935 -8
73 25 1 -1.1128 -8.5 -25.5 -8
74 25 2 0.5564 -7.5428 -25.5 -8
75 25 2 0.5564 -8.73998720841 -24.5733727935 -8
76 26 1 -1.1128 -5.1 -25.5 -8
77 26 2 0.5564 -4.1428 -25.5 -8
78 26 2 0.5564 -5.33998720841 -24.5733727935 -8
79 27 1 -1.1128 -1.7 -25.5 -8
80 27 2 0.5564 -0.7428 -25.5 -8
81 27 2 0.5564 -1.93998720841 -24.5733727935 -8
82 28 1 -1.1128 1.7 -25.5 -8
83 28 2 0.5564 2.6572 -25.5 -8
84 28 2 0.5564 1.46001279159 -24.5733727935 -8
85 29 1 -1.1128 5.1 -25.5 -8
86 29 2 0.5564 6.0572 -25.5 -8
87 29 2 0.5564 4.86001279159 -24.5733727935 -8
88 30 1 -1.1128 8.5 -25.5 -8
89 30 2 0.5564 9.4572 -25.5 -8
90 30 2 0.5564 8.26001279159 -24.5733727935 -8
91 31 1 -1.1128 11.9 -25.5 -8
92 31 2 0.5564 12.8572 -25.5 -8
93 31 2 0.5564 11.6600127916 -24.5733727935 -8
94 32 1 -1.1128 15.3 -25.5 -8
95 32 2 0.5564 16.2572 -25.5 -8
96 32 2 0.5564 15.0600127916 -24.5733727935 -8
97 33 1 -1.1128 18.7 -25.5 -8
98 33 2 0.5564 19.6572 -25.5 -8
99 33 2 0.5564 18.4600127916 -24.5733727935 -8
100 34 1 -1.1128 22.1 -25.5 -8
101 34 2 0.5564 23.0572 -25.5 -8
102 34 2 0.5564 21.8600127916 -24.5733727935 -8
103 35 1 -1.1128 25.5 -25.5 -8
104 35 2 0.5564 26.4572 -25.5 -8
105 35 2 0.5564 25.2600127916 -24.5733727935 -8
106 36 1 -1.1128 28.9 -25.5 -8
107 36 2 0.5564 29.8572 -25.5 -8
108 36 2 0.5564 28.6600127916 -24.5733727935 -8
109 37 1 -1.1128 -28.9 -22.1 -8
110 37 2 0.5564 -27.9428 -22.1 -8
111 37 2 0.5564 -29.1399872084 -21.1733727935 -8
112 38 1 -1.1128 -25.5 -22.1 -8
113 38 2 0.5564 -24.5428 -22.1 -8
114 38 2 0.5564 -25.7399872084 -21.1733727935 -8
115 39 1 -1.1128 -22.1 -22.1 -8
116 39 2 0.5564 -21.1428 -22.1 -8
117 39 2 0.5564 -22.3399872084 -21.1733727935 -8
118 40 1 -1.1128 -18.7 -22.1 -8
119 40 2 0.5564 -17.7428 -22.1 -8
120 40 2 0.5564 -18.9399872084 -21.1733727935 -8
121 41 1 -1.1128 -15.3 -22.1 -8
122 41 2 0.5564 -14.3428 -22.1 -8
123 41 2 0.5564 -15.5399872084 -21.1733727935 -8
124 42 1 -1.1128 -11.9 -22.1 -8
125 42 2 0.5564 -10.9428 -22.1 -8
126 42 2 0.5564 -12.1399872084 -21.1733727935 -8
127 43 1 -1.1128 -8.5 -22.1 -8
128 43 2 0.5564 -7.5428 -22.1 -8
129 43 2 0.5564 -8.73998720841 -21.1733727935 -8
130 44 1 -1.1128 -5.1 -22.1 -8
131 44 2 0.5564 -4.1428 -22.1 -8
132 44 2 0.5564 -5.33998720841 -21.1733727935 -8
133 45 1 -1.1128 -1.7 -22.1 -8
134 45 2 0.5564 -0.7428 -22.1 -8
135 45 2 0.5564 -1.93998720841 -21.1733727935 -8
136 46 1 -1.1128 1.7 -22.1 -8
137 46 2 0.5564 2.6572 -22.1 -8
138 46 2 0.5564 1.46001279159 -21.1733727935 -8
139 47 1 -1.1128 5.1 -22.1 -8
140 47 2 0.5564 6.0572 -22.1 -8
141 47 2 0.5564 4.86001279159 -21.1733727935 -8
142 48 1 -1.1128 8.5 -22.1 -8
143 48 2 0.5564 9.4572 -22.1 -8
144 48 2 0.5564 8.26001279159 -21.1733727935 -8
145 49 1 -1.1128 11.9 -22.1 -8
146 49 2 0.5564 12.8572 -22.1 -8
147 49 2 0.5564 11.6600127916 -21.1733727935 -8
148 50 1 -1.1128 15.3 -22.1 -8
149 50 2 0.5564 16.2572 -22.1 -8
150 50 2 0.5564 15.0600127916 -21.1733727935 -8
151 51 1 -1.1128 18.7 -22.1 -8
152 51 2 0.5564 19.6572 -22.1 -8
153 51 2 0.5564 18.4600127916 -21.1733727935 -8
154 52 1 -1.1128 22.1 -22.1 -8
155 52 2 0.5564 23.0572 -22.1 -8
156 52 2 0.5564 21.8600127916 -21.1733727935 -8
157 53 1 -1.1128 25.5 -22.1 -8
158 53 2 0.5564 26.4572 -22.1 -8
159 53 2 0.5564 25.2600127916 -21.1733727935 -8
160 54 1 -1.1128 28.9 -22.1 -8
161 54 2 0.5564 29.8572 -22.1 -8
162 54 2 0.5564 28.6600127916 -21.1733727935 -8
163 55 1 -1.1128 -28.9 -18.7 -8
164 55 2 0.5564 -27.9428 -18.7 -8
165 55 2 0.5564 -29.1399872084 -17.7733727935 -8
166 56 1 -1.1128 -25.5 -18.7 -8
167 56 2 0.5564 -24.5428 -18.7 -8
168 56 2 0.5564 -25.7399872084 -17.7733727935 -8
169 57 1 -1.1128 -22.1 -18.7 -8
170 57 2 0.5564 -21.1428 -18.7 -8
171 57 2 0.5564 -22.3399872084 -17.7733727935 -8
172 58 1 -1.1128 -18.7 -18.7 -8
173 58 2 0.5564 -17.7428 -18.7 -8
174 58 2 0.5564 -18.9399872084 -17.7733727935 -8
175 59 1 -1.1128 -15.3 -18.7 -8
176 59 2 0.5564 -14.3428 -18.7 -8
177 59 2 0.5564 -15.5399872084 -17.7733727935 -8
178 60 1 -1.1128 -11.9 -18.7 -8
179 60 2 0.5564 -10.9428 -18.7 -8
180 60 2 0.5564 -12.1399872084 -17.7733727935 -8
181 61 1 -1.1128 -8.5 -18.7 -8
182 61 2 0.5564 -7.5428 -18.7 -8
183 61 2 0.5564 -8.73998720841 -17.7733727935 -8
184 62 1 -1.1128 -5.1 -18.7 -8
185 62 2 0.5564 -4.1428 -18.7 -8
186 62 2 0.5564 -5.33998720841 -17.7733727935 -8
187 63 1 -1.1128 -1.7 -18.7 -8
188 63 2 0.5564 -0.7428 -18.7 -8
189 63 2 0.5564 -1.93998720841 -17.7733727935 -8
190 64 1 -1.1128 1.7 -18.7 -8
191 64 2 0.5564 2.6572 -18.7 -8
192 64 2 0.5564 1.46001279159 -17.7733727935 -8
193 65 1 -1.1128 5.1 -18.7 -8
194 65 2 0.5564 6.0572 -18.7 -8
195 65 2 0.5564 4.86001279159 -17.7733727935 -8
196 66 1 -1.1128 8.5 -18.7 -8
197 66 2 0.5564 9.4572 -18.7 -8
198 66 2 0.5564 8.26001279159 -17.7733727935 -8
199 67 1 -1.1128 11.9 -18.7 -8
200 67 2 0.5564 12.8572 -18.7 -8
201 67 2 0.5564 11.6600127916 -17.7733727935 -8
202 68 1 -1.1128 15.3 -18.7 -8
203 68 2 0.5564 16.2572 -18.7 -8
204 68 2 0.5564 15.0600127916 -17.7733727935 -8
205 69 1 -1.1128 18.7 -18.7 -8
206 69 2 0.5564 19.6572 -18.7 -8
207 69 2 0.5564 18.4600127916 -17.7733727935 -8
208 70 1 -1.1128 22.1 -18.7 -8
209 70 2 0.5564 23.0572 -18.7 -8
210 70 2 0.5564 21.8600127916 -17.7733727935 -8
211 71 1 -1.1128 25.5 -18.7 -8
212 71 2 0.5564 26.4572 -18.7 -8
213 71 2 0.5564 25.2600127916 -17.7733727935 -8
214 72 1 -1.1128 28.9 -18.7 -8
215 72 2 0.5564 29.8572 -18.7 -8
216 72 2 0.5564 28.6600127916 -17.7733727935 -8
217 73 1 -1.1128 -28.9 -15.3 -8
218 73 2 0.5564 -27.9428 -15.3 -8
219 73 2 0.5564 -29.1399872084 -14.3733727935 -8
220 74 1 -1.1128 -25.5 -15.3 -8
221 74 2 0.5564 -24.5428 -15.3 -8
222 74 2 0.5564 -25.7399872084 -14.3733727935 -8
223 75 1 -1.1128 -22.1 -15.3 -8
224 75 2 0.5564 -21.1428 -15.3 -8
225 75 2 0.5564 -22.3399872084 -14.3733727935 -8
226 76 1 -1.1128 -18.7 -15.3 -8
227 76 2 0.5564 -17.7428 -15.3 -8
228 76 2 0.5564 -18.9399872084 -14.3733727935 -8
229 77 1 -1.1128 -15.3 -15.3 -8
230 77 2 0.5564 -14.3428 -15.3 -8
231 77 2 0.5564 -15.5399872084 -14.3733727935 -8
232 78 1 -1.1128 -11.9 -15.3 -8
233 78 2 0.5564 -10.9428 -15.3 -8
234 78 2 0.5564 -12.1399872084 -14.3733727935 -8
235 79 1 -1.1128 -8.5 -15.3 -8
236 79 2 0.5564 -7.5428 -15.3 -8
237 79 2 0.5564 -8.73998720841 -14.3733727935 -8
238 80 1 -1.1128 -5.1 -15.3 -8
239 80 2 0.5564 -4.1428 -15.3 -8
240 80 2 0.5564 -5.33998720841 -14.3733727935 -8
241 81 1 -1.1128 -1.7 -15.3 -8
242 81 2 0.5564 -0.7428 -15.3 -8
243 81 2 0.5564 -1.93998720841 -14.3733727935 -8
244 82 1 -1.1128 1.7 -15.3 -8
245 82 2 0.5564 2.6572 -15.3 -8
246 82 2 0.5564 1.46001279159 -14.3733727935 -8
247 83 1 -1.1128 5.1 -15.3 -8
248 83 2 0.5564 6.0572 -15.3 -8
249 83 2 0.5564 4.86001279159 -14.3733727935 -8
250 84 1 -1.1128 8.5 -15.3 -8
251 84 2 0.5564 9.4572 -15.3 -8
252 84 2 0.5564 8.26001279159 -14.3733727935 -8
253 85 1 -1.1128 11.9 -15.3 -8
254 85 2 0.5564 12.8572 -15.3 -8
255 85 2 0.5564 11.6600127916 -14.3733727935 -8
256 86 1 -1.1128 15.3 -15.3 -8
257 86 2 0.5564 16.2572 -15.3 -8
258 86 2 0.5564 15.0600127916 -14.3733727935 -8
259 87 1 -1.1128 18.7 -15.3 -8
260 87 2 0.5564 19.6572 -15.3 -8
261 87 2 0.5564 18.4600127916 -14.3733727935 -8
262 88 1 -1.1128 22.1 -15.3 -8
263 88 2 0.5564 23.0572 -15.3 -8
264 88 2 0.5564 21.8600127916 -14.3733727935 -8
265 89 1 -1.1128 25.5 -15.3 -8
266 89 2 0.5564 26.4572 -15.3 -8
267 89 2 0.5564 25.2600127916 -14.3733727935 -8
268 90 1 -1.1128 28.9 -15.3 -8
269 90 2 0.5564 29.8572 -15.3 -8
270 90 2 0.5564 28.6600127916 -14.3733727935 -8
271 91 1 -1.1128 -28.9 -11.9 -8
272 91 2 0.5564 -27.9428 -11.9 -8
273 91 2 0.5564 -29.1399872084 -10.9733727935 -8
274 92 1 -1.1128 -25.5 -11.9 -8
275 92 2 0.5564 -24.5428 -11.9 -8
276 92 2 0.5564 -25.7399872084 -10.9733727935 -8
277 93 1 -1.1128 -22.1 -11.9 -8
278 93 2 0.5564 -21.1428 -11.9 -8
279 93 2 0.5564 -22.3399872084 -10.9733727935 -8
280 94 1 -1.1128 -18.7 -11.9 -8
281 94 2 0.5564 -17.7428 -11.9 -8
282 94 2 0.5564 -18.9399872084 -10.9733727935 -8
283 95 1 -1.1128 -15.3 -11.9 -8
284 95 2 0.5564 -14.3428 -11.9 -8
285 95 2 0.5564 -15.5399872084 -10.9733727935 -8
286 96 1 -1.1128 -11.9 -11.9 -8
287 96 2 0.5564 -10.9428 -11.9 -8
288 96 2 0.5564 -12.1399872084 -10.9733727935 -8
289 97 1 -1.1128 -8.5 -11.9 -8
290 97 2 0.5564 -7.5428 -11.9 -8
291 97 2 0.5564 -8.73998720841 -10.9733727935 -8
292 98 1 -1.1128 -5.1 -11.9 -8
293 98 2 0.5564 -4.1428 -11.9 -8
294 98 2 0.5564 -5.33998720841 -10.9733727935 -8
295 99 1 -1.1128 -1.7 -11.9 -8
296 99 2 0.5564 -0.7428 -11.9 -8
297 99 2 0.5564 -1.93998720841 -10.9733727935 -8
298 100 1 -1.1128 1.7 -11.9 -8
299 100 2 0.5564 2.6572 -11.9 -8
300 100 2 0.5564 1.46001279159 -10.9733727935 -8
301 101 1 -1.1128 5.1 -11.9 -8
302 101 2 0.5564 6.0572 -11.9 -8
303 101 2 0.5564 4.86001279159 -10.9733727935 -8
304 102 1 -1.1128 8.5 -11.9 -8
305 102 2 0.5564 9.4572 -11.9 -8
306 102 2 0.5564 8.26001279159 -10.9733727935 -8
307 103 1 -1.1128 11.9 -11.9 -8
308 103 2 0.5564 12.8572 -11.9 -8
309 103 2 0.5564 11.6600127916 -10.9733727935 -8
310 104 1 -1.1128 15.3 -11.9 -8
311 104 2 0.5564 16.2572 -11.9 -8
312 104 2 0.5564 15.0600127916 -10.9733727935 -8
313 105 1 -1.1128 18.7 -11.9 -8
314 105 2 0.5564 19.6572 -11.9 -8
315 105 2 0.5564 18.4600127916 -10.9733727935 -8
316 106 1 -1.1128 22.1 -11.9 -8
317 106 2 0.5564 23.0572 -11.9 -8
318 106 2 0.5564 21.8600127916 -10.9733727935 -8
319 107 1 -1.1128 25.5 -11.9 -8
320 107 2 0.5564 26.4572 -11.9 -8
321 107 2 0.5564 25.2600127916 -10.9733727935 -8
322 108 1 -1.1128 28.9 -11.9 -8
323 108 2 0.5564 29.8572 -11.9 -8
324 108 2 0.5564 28.6600127916 -10.9733727935 -8
325 109 1 -1.1128 -28.9 -8.5 -8
326 109 2 0.5564 -27.9428 -8.5 -8
327 109 2 0.5564 -29.1399872084 -7.57337279351 -8
328 110 1 -1.1128 -25.5 -8.5 -8
329 110 2 0.5564 -24.5428 -8.5 -8
330 110 2 0.5564 -25.7399872084 -7.57337279351 -8
331 111 1 -1.1128 -22.1 -8.5 -8
332 111 2 0.5564 -21.1428 -8.5 -8
333 111 2 0.5564 -22.3399872084 -7.57337279351 -8
334 112 1 -1.1128 -18.7 -8.5 -8
335 112 2 0.5564 -17.7428 -8.5 -8
336 112 2 0.5564 -18.9399872084 -7.57337279351 -8
337 113 1 -1.1128 -15.3 -8.5 -8
338 113 2 0.5564 -14.3428 -8.5 -8
339 113 2 0.5564 -15.5399872084 -7.57337279351 -8
340 114 1 -1.1128 -11.9 -8.5 -8
341 114 2 0.5564 -10.9428 -8.5 -8
342 114 2 0.5564 -12.1399872084 -7.57337279351 -8
343 115 1 -1.1128 -8.5 -8.5 -8
344 115 2 0.5564 -7.5428 -8.5 -8
345 115 2 0.5564 -8.73998720841 -7.57337279351 -8
346 116 1 -1.1128 -5.1 -8.5 -8
347 116 2 0.5564 -4.1428 -8.5 -8
348 116 2 0.5564 -5.33998720841 -7.57337279351 -8
349 117 1 -1.1128 -1.7 -8.5 -8
350 117 2 0.5564 -0.7428 -8.5 -8
351 117 2 0.5564 -1.93998720841 -7.57337279351 -8
352 118 1 -1.1128 1.7 -8.5 -8
353 118 2 0.5564 2.6572 -8.5 -8
354 118 2 0.5564 1.46001279159 -7.57337279351 -8
355 119 1 -1.1128 5.1 -8.5 -8
356 119 2 0.5564 6.0572 -8.5 -8
357 119 2 0.5564 4.86001279159 -7.57337279351 -8
358 120 1 -1.1128 8.5 -8.5 -8
359 120 2 0.5564 9.4572 -8.5 -8
360 120 2 0.5564 8.26001279159 -7.57337279351 -8
361 121 1 -1.1128 11.9 -8.5 -8
362 121 2 0.5564 12.8572 -8.5 -8
363 121 2 0.5564 11.6600127916 -7.57337279351 -8
364 122 1 -1.1128 15.3 -8.5 -8
365 122 2 0.5564 16.2572 -8.5 -8
366 122 2 0.5564 15.0600127916 -7.57337279351 -8
367 123 1 -1.1128 18.7 -8.5 -8
368 123 2 0.5564 19.6572 -8.5 -8
369 123 2 0.5564 18.4600127916 -7.57337279351 -8
370 124 1 -1.1128 22.1 -8.5 -8
371 124 2 0.5564 23.0572 -8.5 -8
372 124 2 0.5564 21.8600127916 -7.57337279351 -8
373 125 1 -1.1128 25.5 -8.5 -8
374 125 2 0.5564 26.4572 -8.5 -8
375 125 2 0.5564 25.2600127916 -7.57337279351 -8
376 126 1 -1.1128 28.9 -8.5 -8
377 126 2 0.5564 29.8572 -8.5 -8
378 126 2 0.5564 28.6600127916 -7.57337279351 -8
379 127 1 -1.1128 -28.9 -5.1 -8
380 127 2 0.5564 -27.9428 -5.1 -8
381 127 2 0.5564 -29.1399872084 -4.17337279351 -8
382 128 1 -1.1128 -25.5 -5.1 -8
383 128 2 0.5564 -24.5428 -5.1 -8
384 128 2 0.5564 -25.7399872084 -4.17337279351 -8
385 129 1 -1.1128 -22.1 -5.1 -8
386 129 2 0.5564 -21.1428 -5.1 -8
387 129 2 0.5564 -22.3399872084 -4.17337279351 -8
388 130 1 -1.1128 -18.7 -5.1 -8
389 130 2 0.5564 -17.7428 -5.1 -8
390 130 2 0.5564 -18.9399872084 -4.17337279351 -8
391 131 1 -1.1128 -15.3 -5.1 -8
392 131 2 0.5564 -14.3428 -5.1 -8
393 131 2 0.5564 -15.5399872084 -4.17337279351 -8
394 132 1 -1.1128 -11.9 -5.1 -8
395 132 2 0.5564 -10.9428 -5.1 -8
396 132 2 0.5564 -12.1399872084 -4.17337279351 -8
397 133 1 -1.1128 -8.5 -5.1 -8
398 133 2 0.5564 -7.5428 -5.1 -8
399 133 2 0.5564 -8.73998720841 -4.17337279351 -8
400 134 1 -1.1128 -5.1 -5.1 -8
401 134 2 0.5564 -4.1428 -5.1 -8
402 134 2 0.5564 -5.33998720841 -4.17337279351 -8
403 135 1 -1.1128 -1.7 -5.1 -8
404 135 2 0.5564 -0.7428 -5.1 -8
405 135 2 0.5564 -1.93998720841 -4.17337279351 -8
406 136 1 -1.1128 1.7 -5.1 -8
407 136 2 0.5564 2.6572 -5.1 -8
408 136 2 0.5564 1.46001279159 -4.17337279351 -8
409 137 1 -1.1128 5.1 -5.1 -8
410 137 2 0.5564 6.0572 -5.1 -8
411 137 2 0.5564 4.86001279159 -4.17337279351 -8
412 138 1 -1.1128 8.5 -5.1 -8
413 138 2 0.5564 9.4572 -5.1 -8
414 138 2 0.5564 8.26001279159 -4.17337279351 -8
415 139 1 -1.1128 11.9 -5.1 -8
416 139 2 0.5564 12.8572 -5.1 -8
417 139 2 0.5564 11.6600127916 -4.17337279351 -8
418 140 1 -1.1128 15.3 -5.1 -8
419 140 2 0.5564 16.2572 -5.1 -8
420 140 2 0.5564 15.0600127916 -4.17337279351 -8
421 141 1 -1.1128 18.7 -5.1 -8
422 141 2 0.5564 19.6572 -5.1 -8
423 141 2 0.5564 18.4600127916 -4.17337279351 -8
424 142 1 -1.1128 22.1 -5.1 -8
425 142 2 0.5564 23.0572 -5.1 -8
426 142 2 0.5564 21.8600127916 -4.17337279351 -8
427 143 1 -1.1128 25.5 -5.1 -8
428 143 2 0.5564 26.4572 -5.1 -8
429 143 2 0.5564 25.2600127916 -4.17337279351 -8
430 144 1 -1.1128 28.9 -5.1 -8
431 144 2 0.5564 29.8572 -5.1 -8
432 144 2 0.5564 28.6600127916 -4.17337279351 -8
433 145 1 -1.1128 -28.9 -1.7 -8
434 145 2 0.5564 -27.9428 -1.7 -8
435 145 2 0.5564 -29.1399872084 -0.773372793514 -8
436 146 1 -1.1128 -25.5 -1.7 -8
437 146 2 0.5564 -24.5428 -1.7 -8
438 146 2 0.5564 -25.7399872084 -0.773372793514 -8
439 147 1 -1.1128 -22.1 -1.7 -8
440 147 2 0.5564 -21.1428 -1.7 -8
441 147 2 0.5564 -22.3399872084 -0.773372793514 -8
442 148 1 -1.1128 -18.7 -1.7 -8
443 148 2 0.5564 -17.7428 -1.7 -8
444 148 2 0.5564 -18.9399872084 -0.773372793514 -8
445 149 1 -1.1128 -15.3 -1.7 -8
446 149 2 0.5564 -14.3428 -1.7 -8
447 149 2 0.5564 -15.5399872084 -0.773372793514 -8
448 150 1 -1.1128 -11.9 -1.7 -8
449 150 2 0.5564 -10.9428 -1.7 -8
450 150 2 0.5564 -12.1399872084 -0.773372793514 -8
451 151 1 -1.1128 -8.5 -1.7 -8
452 151 2 0.5564 -7.5428 -1.7 -8
453 151 2 0.5564 -8.73998720841 -0.773372793514 -8
454 152 1 -1.1128 -5.1 -1.7 -8
455 152 2 0.5564 -4.1428 -1.7 -8
456 152 2 0.5564 -5.33998720841 -0.773372793514 -8
457 153 1 -1.1128 -1.7 -1.7 -8
458 153 2 0.5564 -0.7428 -1.7 -8
459 153 2 0.5564 -1.93998720841 -0.773372793514 -8
460 154 1 -1.1128 1.7 -1.7 -8
461 154 2 0.5564 2.6572 -1.7 -8
462 154 2 0.5564 1.46001279159 -0.773372793514 -8
463 155 1 -1.1128 5.1 -1.7 -8
464 155 2 0.5564 6.0572 -1.7 -8
465 155 2 0.5564 4.86001279159 -0.773372793514 -8
466 156 1 -1.1128 8.5 -1.7 -8
467 156 2 0.5564 9.4572 -1.7 -8
468 156 2 0.5564 8.26001279159 -0.773372793514 -8
469 157 1 -1.1128 11.9 -1.7 -8
470 157 2 0.5564 12.8572 -1.7 -8
471 157 2 0.5564 11.6600127916 -0.773372793514 -8
472 158 1 -1.1128 15.3 -1.7 -8
473 158 2 0.5564 16.2572 -1.7 -8
474 158 2 0.5564 15.0600127916 -0.773372793514 -8
475 159 1 -1.1128 18.7 -1.7 -8
476 159 2 0.5564 19.6572 -1.7 -8
477 159 2 0.5564 18.4600127916 -0.773372793514 -8
478 160 1 -1.1128 22.1 -1.7 -8
479 160 2 0.5564 23.0572 -1.7 -8
480 160 2 0.5564 21.8600127916 -0.773372793514 -8
481 161 1 -1.1128 25.5 -1.7 -8
482 161 2 0.5564 26.4572 -1.7 -8
483 161 2 0.5564 25.2600127916 -0.773372793514 -8
484 162 1 -1.1128 28.9 -1.7 -8
485 162 2 0.5564 29.8572 -1.7 -8
486 162 2 0.5564 28.6600127916 -0.773372793514 -8
487 163 1 -1.1128 -28.9 1.7 -8
488 163 2 0.5564 -27.9428 1.7 -8
489 163 2 0.5564 -29.1399872084 2.62662720649 -8
490 164 1 -1.1128 -25.5 1.7 -8
491 164 2 0.5564 -24.5428 1.7 -8
492 164 2 0.5564 -25.7399872084 2.62662720649 -8
493 165 1 -1.1128 -22.1 1.7 -8
494 165 2 0.5564 -21.1428 1.7 -8
495 165 2 0.5564 -22.3399872084 2.62662720649 -8
496 166 1 -1.1128 -18.7 1.7 -8
497 166 2 0.5564 -17.7428 1.7 -8
498 166 2 0.5564 -18.9399872084 2.62662720649 -8
499 167 1 -1.1128 -15.3 1.7 -8
500 167 2 0.5564 -14.3428 1.7 -8
501 167 2 0.5564 -15.5399872084 2.62662720649 -8
502 168 1 -1.1128 -11.9 1.7 -8
503 168 2 0.5564 -10.9428 1.7 -8
504 168 2 0.5564 -12.1399872084 2.62662720649 -8
505 169 1 -1.1128 -8.5 1.7 -8
506 169 2 0.5564 -7.5428 1.7 -8
507 169 2 0.5564 -8.73998720841 2.62662720649 -8
508 170 1 -1.1128 -5.1 1.7 -8
509 170 2 0.5564 -4.1428 1.7 -8
510 170 2 0.5564 -5.33998720841 2.62662720649 -8
511 171 1 -1.1128 -1.7 1.7 -8
512 171 2 0.5564 -0.7428 1.7 -8
513 171 2 0.5564 -1.93998720841 2.62662720649 -8
514 172 1 -1.1128 1.7 1.7 -8
515 172 2 0.5564 2.6572 1.7 -8
516 172 2 0.5564 1.46001279159 2.62662720649 -8
517 173 1 -1.1128 5.1 1.7 -8
518 173 2 0.5564 6.0572 1.7 -8
519 173 2 0.5564 4.86001279159 2.62662720649 -8
520 174 1 -1.1128 8.5 1.7 -8
521 174 2 0.5564 9.4572 1.7 -8
522 174 2 0.5564 8.26001279159 2.62662720649 -8
523 175 1 -1.1128 11.9 1.7 -8
524 175 2 0.5564 12.8572 1.7 -8
525 175 2 0.5564 11.6600127916 2.62662720649 -8
526 176 1 -1.1128 15.3 1.7 -8
527 176 2 0.5564 16.2572 1.7 -8
528 176 2 0.5564 15.0600127916 2.62662720649 -8
529 177 1 -1.1128 18.7 1.7 -8
530 177 2 0.5564 19.6572 1.7 -8
531 177 2 0.5564 18.4600127916 2.62662720649 -8
532 178 1 -1.1128 22.1 1.7 -8
533 178 2 0.5564 23.0572 1.7 -8
534 178 2 0.5564 21.8600127916 2.62662720649 -8
535 179 1 -1.1128 25.5 1.7 -8
536 179 2 0.5564 26.4572 1.7 -8
537 179 2 0.5564 25.2600127916 2.62662720649 -8
538 180 1 -1.1128 28.9 1.7 -8
539 180 2 0.5564 29.8572 1.7 -8
540 180 2 0.5564 28.6600127916 2.62662720649 -8
541 181 1 -1.1128 -28.9 5.1 -8
542 181 2 0.5564 -27.9428 5.1 -8
543 181 2 0.5564 -29.1399872084 6.02662720649 -8
544 182 1 -1.1128 -25.5 5.1 -8
545 182 2 0.5564 -24.5428 5.1 -8
546 182 2 0.5564 -25.7399872084 6.02662720649 -8
547 183 1 -1.1128 -22.1 5.1 -8
548 183 2 0.5564 -21.1428 5.1 -8
549 183 2 0.5564 -22.3399872084 6.02662720649 -8
550 184 1 -1.1128 -18.7 5.1 -8
551 184 2 0.5564 -17.7428 5.1 -8
552 184 2 0.5564 -18.9399872084 6.02662720649 -8
553 185 1 -1.1128 -15.3 5.1 -8
554 185 2 0.5564 -14.3428 5.1 -8
555 185 2 0.5564 -15.5399872084 6.02662720649 -8
556 186 1 -1.1128 -11.9 5.1 -8
557 186 2 0.5564 -10.9428 5.1 -8
558 186 2 0.5564 -12.1399872084 6.02662720649 -8
559 187 1 -1.1128 -8.5 5.1 -8
560 187 2 0.5564 -7.5428 5.1 -8
561 187 2 0.5564 -8.73998720841 6.02662720649 -8
562 188 1 -1.1128 -5.1 5.1 -8
563 188 2 0.5564 -4.1428 5.1 -8
564 188 2 0.5564 -5.33998720841 6.02662720649 -8
565 189 1 -1.1128 -1.7 5.1 -8
566 189 2 0.5564 -0.7428 5.1 -8
567 189 2 0.5564 -1.93998720841 6.02662720649 -8
568 190 1 -1.1128 1.7 5.1 -8
569 190 2 0.5564 2.6572 5.1 -8
570 190 2 0.5564 1.46001279159 6.02662720649 -8
571 191 1 -1.1128 5.1 5.1 -8
572 191 2 0.5564 6.0572 5.1 -8
573 191 2 0.5564 4.86001279159 6.02662720649 -8
574 192 1 -1.1128 8.5 5.1 -8
575 192 2 0.5564 9.4572 5.1 -8
576 192 2 0.5564 8.26001279159 6.02662720649 -8
577 193 1 -1.1128 11.9 5.1 -8
578 193 2 0.5564 12.8572 5.1 -8
579 193 2 0.5564 11.6600127916 6.02662720649 -8
580 194 1 -1.1128 15.3 5.1 -8
581 194 2 0.5564 16.2572 5.1 -8
582 194 2 0.5564 15.0600127916 6.02662720649 -8
583 195 1 -1.1128 18.7 5.1 -8
584 195 2 0.5564 19.6572 5.1 -8
585 195 2 0.5564 18.4600127916 6.02662720649 -8
586 196 1 -1.1128 22.1 5.1 -8
587 196 2 0.5564 23.0572 5.1 -8
588 196 2 0.5564 21.8600127916 6.02662720649 -8
589 197 1 -1.1128 25.5 5.1 -8
590 197 2 0.5564 26.4572 5.1 -8
591 197 2 0.5564 25.2600127916 6.02662720649 -8
592 198 1 -1.1128 28.9 5.1 -8
593 198 2 0.5564 29.8572 5.1 -8
594 198 2 0.5564 28.6600127916 6.02662720649 -8
595 199 1 -1.1128 -28.9 8.5 -8
596 199 2 0.5564 -27.9428 8.5 -8
597 199 2 0.5564 -29.1399872084 9.42662720649 -8
598 200 1 -1.1128 -25.5 8.5 -8
599 200 2 0.5564 -24.5428 8.5 -8
600 200 2 0.5564 -25.7399872084 9.42662720649 -8
601 201 1 -1.1128 -22.1 8.5 -8
602 201 2 0.5564 -21.1428 8.5 -8
603 201 2 0.5564 -22.3399872084 9.42662720649 -8
604 202 1 -1.1128 -18.7 8.5 -8
605 202 2 0.5564 -17.7428 8.5 -8
606 202 2 0.5564 -18.9399872084 9.42662720649 -8
607 203 1 -1.1128 -15.3 8.5 -8
608 203 2 0.5564 -14.3428 8.5 -8
609 203 2 0.5564 -15.5399872084 9.42662720649 -8
610 204 1 -1.1128 -11.9 8.5 -8
611 204 2 0.5564 -10.9428 8.5 -8
612 204 2 0.5564 -12.1399872084 9.42662720649 -8
613 205 1 -1.1128 -8.5 8.5 -8
614 205 2 0.5564 -7.5428 8.5 -8
615 205 2 0.5564 -8.73998720841 9.42662720649 -8
616 206 1 -1.1128 -5.1 8.5 -8
617 206 2 0.5564 -4.1428 8.5 -8
618 206 2 0.5564 -5.33998720841 9.42662720649 -8
619 207 1 -1.1128 -1.7 8.5 -8
620 207 2 0.5564 -0.7428 8.5 -8
621 207 2 0.5564 -1.93998720841 9.42662720649 -8
622 208 1 -1.1128 1.7 8.5 -8
623 208 2 0.5564 2.6572 8.5 -8
624 208 2 0.5564 1.46001279159 9.42662720649 -8
625 209 1 -1.1128 5.1 8.5 -8
626 209 2 0.5564 6.0572 8.5 -8
627 209 2 0.5564 4.86001279159 9.42662720649 -8
628 210 1 -1.1128 8.5 8.5 -8
629 210 2 0.5564 9.4572 8.5 -8
630 210 2 0.5564 8.26001279159 9.42662720649 -8
631 211 1 -1.1128 11.9 8.5 -8
632 211 2 0.5564 12.8572 8.5 -8
633 211 2 0.5564 11.6600127916 9.42662720649 -8
634 212 1 -1.1128 15.3 8.5 -8
635 212 2 0.5564 16.2572 8.5 -8
636 212 2 0.5564 15.0600127916 9.42662720649 -8
637 213 1 -1.1128 18.7 8.5 -8
638 213 2 0.5564 19.6572 8.5 -8
639 213 2 0.5564 18.4600127916 9.42662720649 -8
640 214 1 -1.1128 22.1 8.5 -8
641 214 2 0.5564 23.0572 8.5 -8
642 214 2 0.5564 21.8600127916 9.42662720649 -8
643 215 1 -1.1128 25.5 8.5 -8
644 215 2 0.5564 26.4572 8.5 -8
645 215 2 0.5564 25.2600127916 9.42662720649 -8
646 216 1 -1.1128 28.9 8.5 -8
647 216 2 0.5564 29.8572 8.5 -8
648 216 2 0.5564 28.6600127916 9.42662720649 -8
649 217 1 -1.1128 -28.9 11.9 -8
650 217 2 0.5564 -27.9428 11.9 -8
651 217 2 0.5564 -29.1399872084 12.8266272065 -8
652 218 1 -1.1128 -25.5 11.9 -8
653 218 2 0.5564 -24.5428 11.9 -8
654 218 2 0.5564 -25.7399872084 12.8266272065 -8
655 219 1 -1.1128 -22.1 11.9 -8
656 219 2 0.5564 -21.1428 11.9 -8
657 219 2 0.5564 -22.3399872084 12.8266272065 -8
658 220 1 -1.1128 -18.7 11.9 -8
659 220 2 0.5564 -17.7428 11.9 -8
660 220 2 0.5564 -18.9399872084 12.8266272065 -8
661 221 1 -1.1128 -15.3 11.9 -8
662 221 2 0.5564 -14.3428 11.9 -8
663 221 2 0.5564 -15.5399872084 12.8266272065 -8
664 222 1 -1.1128 -11.9 11.9 -8
665 222 2 0.5564 -10.9428 11.9 -8
666 222 2 0.5564 -12.1399872084 12.8266272065 -8
667 223 1 -1.1128 -8.5 11.9 -8
668 223 2 0.5564 -7.5428 11.9 -8
669 223 2 0.5564 -8.73998720841 12.8266272065 -8
670 224 1 -1.1128 -5.1 11.9 -8
671 224 2 0.5564 -4.1428 11.9 -8
672 224 2 0.5564 -5.33998720841 12.8266272065 -8
673 225 1 -1.1128 -1.7 11.9 -8
674 225 2 0.5564 -0.7428 11.9 -8
675 225 2 0.5564 -1.93998720841 12.8266272065 -8
676 226 1 -1.1128 1.7 11.9 -8
677 226 2 0.5564 2.6572 11.9 -8
678 226 2 0.5564 1.46001279159 12.8266272065 -8
679 227 1 -1.1128 5.1 11.9 -8
680 227 2 0.5564 6.0572 11.9 -8
681 227 2 0.5564 4.86001279159 12.8266272065 -8
682 228 1 -1.1128 8.5 11.9 -8
683 228 2 0.5564 9.4572 11.9 -8
684 228 2 0.5564 8.26001279159 12.8266272065 -8
685 229 1 -1.1128 11.9 11.9 -8
686 229 2 0.5564 12.8572 11.9 -8
687 229 2 0.5564 11.6600127916 12.8266272065 -8
688 230 1 -1.1128 15.3 11.9 -8
689 230 2 0.5564 16.2572 11.9 -8
690 230 2 0.5564 15.0600127916 12.8266272065 -8
691 231 1 -1.1128 18.7 11.9 -8
692 231 2 0.5564 19.6572 11.9 -8
693 231 2 0.5564 18.4600127916 12.8266272065 -8
694 232 1 -1.1128 22.1 11.9 -8
695 232 2 0.5564 23.0572 11.9 -8
696 232 2 0.5564 21.8600127916 12.8266272065 -8
697 233 1 -1.1128 25.5 11.9 -8
698 233 2 0.5564 26.4572 11.9 -8
699 233 2 0.5564 25.2600127916 12.8266272065 -8
700 234 1 -1.1128 28.9 11.9 -8
701 234 2 0.5564 29.8572 11.9 -8
702 234 2 0.5564 28.6600127916 12.8266272065 -8
703 235 1 -1.1128 -28.9 15.3 -8
704 235 2 0.5564 -27.9428 15.3 -8
705 235 2 0.5564 -29.1399872084 16.2266272065 -8
706 236 1 -1.1128 -25.5 15.3 -8
707 236 2 0.5564 -24.5428 15.3 -8
708 236 2 0.5564 -25.7399872084 16.2266272065 -8
709 237 1 -1.1128 -22.1 15.3 -8
710 237 2 0.5564 -21.1428 15.3 -8
711 237 2 0.5564 -22.3399872084 16.2266272065 -8
712 238 1 -1.1128 -18.7 15.3 -8
713 238 2 0.5564 -17.7428 15.3 -8
714 238 2 0.5564 -18.9399872084 16.2266272065 -8
715 239 1 -1.1128 -15.3 15.3 -8
716 239 2 0.5564 -14.3428 15.3 -8
717 239 2 0.5564 -15.5399872084 16.2266272065 -8
718 240 1 -1.1128 -11.9 15.3 -8
719 240 2 0.5564 -10.9428 15.3 -8
720 240 2 0.5564 -12.1399872084 16.2266272065 -8
721 241 1 -1.1128 -8.5 15.3 -8
722 241 2 0.5564 -7.5428 15.3 -8
723 241 2 0.5564 -8.73998720841 16.2266272065 -8
724 242 1 -1.1128 -5.1 15.3 -8
725 242 2 0.5564 -4.1428 15.3 -8
726 242 2 0.5564 -5.33998720841 16.2266272065 -8
727 243 1 -1.1128 -1.7 15.3 -8
728 243 2 0.5564 -0.7428 15.3 -8
729 243 2 0.5564 -1.93998720841 16.2266272065 -8
730 244 1 -1.1128 1.7 15.3 -8
731 244 2 0.5564 2.6572 15.3 -8
732 244 2 0.5564 1.46001279159 16.2266272065 -8
733 245 1 -1.1128 5.1 15.3 -8
734 245 2 0.5564 6.0572 15.3 -8
735 245 2 0.5564 4.86001279159 16.2266272065 -8
736 246 1 -1.1128 8.5 15.3 -8
737 246 2 0.5564 9.4572 15.3 -8
738 246 2 0.5564 8.26001279159 16.2266272065 -8
739 247 1 -1.1128 11.9 15.3 -8
740 247 2 0.5564 12.8572 15.3 -8
741 247 2 0.5564 11.6600127916 16.2266272065 -8
742 248 1 -1.1128 15.3 15.3 -8
743 248 2 0.5564 16.2572 15.3 -8
744 248 2 0.5564 15.0600127916 16.2266272065 -8
745 249 1 -1.1128 18.7 15.3 -8
746 249 2 0.5564 19.6572 15.3 -8
747 249 2 0.5564 18.4600127916 16.2266272065 -8
748 250 1 -1.1128 22.1 15.3 -8
749 250 2 0.5564 23.0572 15.3 -8
750 250 2 0.5564 21.8600127916 16.2266272065 -8
751 251 1 -1.1128 25.5 15.3 -8
752 251 2 0.5564 26.4572 15.3 -8
753 251 2 0.5564 25.2600127916 16.2266272065 -8
754 252 1 -1.1128 28.9 15.3 -8
755 252 2 0.5564 29.8572 15.3 -8
756 252 2 0.5564 28.6600127916 16.2266272065 -8
757 253 1 -1.1128 -28.9 18.7 -8
758 253 2 0.5564 -27.9428 18.7 -8
759 253 2 0.5564 -29.1399872084 19.6266272065 -8
760 254 1 -1.1128 -25.5 18.7 -8
761 254 2 0.5564 -24.5428 18.7 -8
762 254 2 0.5564 -25.7399872084 19.6266272065 -8
763 255 1 -1.1128 -22.1 18.7 -8
764 255 2 0.5564 -21.1428 18.7 -8
765 255 2 0.5564 -22.3399872084 19.6266272065 -8
766 256 1 -1.1128 -18.7 18.7 -8
767 256 2 0.5564 -17.7428 18.7 -8
768 256 2 0.5564 -18.9399872084 19.6266272065 -8
769 257 1 -1.1128 -15.3 18.7 -8
770 257 2 0.5564 -14.3428 18.7 -8
771 257 2 0.5564 -15.5399872084 19.6266272065 -8
772 258 1 -1.1128 -11.9 18.7 -8
773 258 2 0.5564 -10.9428 18.7 -8
774 258 2 0.5564 -12.1399872084 19.6266272065 -8
775 259 1 -1.1128 -8.5 18.7 -8
776 259 2 0.5564 -7.5428 18.7 -8
777 259 2 0.5564 -8.73998720841 19.6266272065 -8
778 260 1 -1.1128 -5.1 18.7 -8
779 260 2 0.5564 -4.1428 18.7 -8
780 260 2 0.5564 -5.33998720841 19.6266272065 -8
781 261 1 -1.1128 -1.7 18.7 -8
782 261 2 0.5564 -0.7428 18.7 -8
783 261 2 0.5564 -1.93998720841 19.6266272065 -8
784 262 1 -1.1128 1.7 18.7 -8
785 262 2 0.5564 2.6572 18.7 -8
786 262 2 0.5564 1.46001279159 19.6266272065 -8
787 263 1 -1.1128 5.1 18.7 -8
788 263 2 0.5564 6.0572 18.7 -8
789 263 2 0.5564 4.86001279159 19.6266272065 -8
790 264 1 -1.1128 8.5 18.7 -8
791 264 2 0.5564 9.4572 18.7 -8
792 264 2 0.5564 8.26001279159 19.6266272065 -8
793 265 1 -1.1128 11.9 18.7 -8
794 265 2 0.5564 12.8572 18.7 -8
795 265 2 0.5564 11.6600127916 19.6266272065 -8
796 266 1 -1.1128 15.3 18.7 -8