# Data file LAMMPS

5340 atoms
2016 bonds
1008 angles

3 atom types
1 bond types
1 angle types

-14.7362882708 14.7362882708 xlo xhi 
-12.762 12.762 ylo yhi 
-121.5904 121.5904 zlo zhi 

Masses 
 
1 1.00794
2 15.9994
3 12.01

Atoms 
 
1 0 3 0 -14.7362882708 -12.762 -101.5904 
2 0 3 0 -14.7362882708 -11.344 -101.5904 
3 0 3 0 -13.5082642482 -10.635 -101.5904 
4 0 3 0 -13.5082642482 -9.217 -101.5904 
5 0 3 0 -12.2802402257 -12.762 -101.5904 
6 0 3 0 -12.2802402257 -11.344 -101.5904 
7 0 3 0 -11.0522162031 -10.635 -101.5904 
8 0 3 0 -11.0522162031 -9.217 -101.5904 
9 0 3 0 -9.82419218053 -12.762 -101.5904 
10 0 3 0 -9.82419218053 -11.344 -101.5904 
11 0 3 0 -8.59616815796 -10.635 -101.5904 
12 0 3 0 -8.59616815796 -9.217 -101.5904 
13 0 3 0 -7.3681441354 -12.762 -101.5904 
14 0 3 0 -7.3681441354 -11.344 -101.5904 
15 0 3 0 -6.14012011283 -10.635 -101.5904 
16 0 3 0 -6.14012011283 -9.217 -101.5904 
17 0 3 0 -4.91209609027 -12.762 -101.5904 
18 0 3 0 -4.91209609027 -11.344 -101.5904 
19 0 3 0 -3.6840720677 -10.635 -101.5904 
20 0 3 0 -3.6840720677 -9.217 -101.5904 
21 0 3 0 -2.45604804513 -12.762 -101.5904 
22 0 3 0 -2.45604804513 -11.344 -101.5904 
23 0 3 0 -1.22802402257 -10.635 -101.5904 
24 0 3 0 -1.22802402257 -9.217 -101.5904 
25 0 3 0 2.6645352591e-15 -12.762 -101.5904 
26 0 3 0 2.6645352591e-15 -11.344 -101.5904 
27 0 3 0 1.22802402257 -10.635 -101.5904 
28 0 3 0 1.22802402257 -9.217 -101.5904 
29 0 3 0 2.45604804513 -12.762 -101.5904 
30 0 3 0 2.45604804513 -11.344 -101.5904 
31 0 3 0 3.6840720677 -10.635 -101.5904 
32 0 3 0 3.6840720677 -9.217 -101.5904 
33 0 3 0 4.91209609027 -12.762 -101.5904 
34 0 3 0 4.91209609027 -11.344 -101.5904 
35 0 3 0 6.14012011283 -10.635 -101.5904 
36 0 3 0 6.14012011283 -9.217 -101.5904 
37 0 3 0 7.3681441354 -12.762 -101.5904 
38 0 3 0 7.3681441354 -11.344 -101.5904 
39 0 3 0 8.59616815796 -10.635 -101.5904 
40 0 3 0 8.59616815796 -9.217 -101.5904 
41 0 3 0 9.82419218053 -12.762 -101.5904 
42 0 3 0 9.82419218053 -11.344 -101.5904 
43 0 3 0 11.0522162031 -10.635 -101.5904 
44 0 3 0 11.0522162031 -9.217 -101.5904 
45 0 3 0 12.2802402257 -12.762 -101.5904 
46 0 3 0 12.2802402257 -11.344 -101.5904 
47 0 3 0 13.5082642482 -10.635 -101.5904 
48 0 3 0 13.5082642482 -9.217 -101.5904 
49 0 3 0 -14.7362882708 -8.508 -101.5904 
50 0 3 0 -14.7362882708 -7.09 -101.5904 
51 0 3 0 -13.5082642482 -6.381 -101.5904 
52 0 3 0 -13.5082642482 -4.963 -101.5904 
53 0 3 0 -12.2802402257 -8.508 -101.5904 
54 0 3 0 -12.2802402257 -7.09 -101.5904 
55 0 3 0 -11.0522162031 -6.381 -101.5904 
56 0 3 0 -11.0522162031 -4.963 -101.5904 
57 0 3 0 -9.82419218053 -8.508 -101.5904 
58 0 3 0 -9.82419218053 -7.09 -101.5904 
59 0 3 0 -8.59616815796 -6.381 -101.5904 
60 0 3 0 -8.59616815796 -4.963 -101.5904 
61 0 3 0 -7.3681441354 -8.508 -101.5904 
62 0 3 0 -7.3681441354 -7.09 -101.5904 
63 0 3 0 -6.14012011283 -6.381 -101.5904 
64 0 3 0 -6.14012011283 -4.963 -101.5904 
65 0 3 0 -4.91209609027 -8.508 -101.5904 
66 0 3 0 -4.91209609027 -7.09 -101.5904 
67 0 3 0 -3.6840720677 -6.381 -101.5904 
68 0 3 0 -3.6840720677 -4.963 -101.5904 
69 0 3 0 -2.45604804513 -8.508 -101.5904 
70 0 3 0 -2.45604804513 -7.09 -101.5904 
71 0 3 0 -1.22802402257 -6.381 -101.5904 
72 0 3 0 -1.22802402257 -4.963 -101.5904 
73 0 3 0 2.6645352591e-15 -8.508 -101.5904 
74 0 3 0 2.6645352591e-15 -7.09 -101.5904 
75 0 3 0 1.22802402257 -6.381 -101.5904 
76 0 3 0 1.22802402257 -4.963 -101.5904 
77 0 3 0 2.45604804513 -8.508 -101.5904 
78 0 3 0 2.45604804513 -7.09 -101.5904 
79 0 3 0 3.6840720677 -6.381 -101.5904 
80 0 3 0 3.6840720677 -4.963 -101.5904 
81 0 3 0 4.91209609027 -8.508 -101.5904 
82 0 3 0 4.91209609027 -7.09 -101.5904 
83 0 3 0 6.14012011283 -6.381 -101.5904 
84 0 3 0 6.14012011283 -4.963 -101.5904 
85 0 3 0 7.3681441354 -8.508 -101.5904 
86 0 3 0 7.3681441354 -7.09 -101.5904 
87 0 3 0 8.59616815796 -6.381 -101.5904 
88 0 3 0 8.59616815796 -4.963 -101.5904 
89 0 3 0 9.82419218053 -8.508 -101.5904 
90 0 3 0 9.82419218053 -7.09 -101.5904 
91 0 3 0 11.0522162031 -6.381 -101.5904 
92 0 3 0 11.0522162031 -4.963 -101.5904 
93 0 3 0 12.2802402257 -8.508 -101.5904 
94 0 3 0 12.2802402257 -7.09 -101.5904 
95 0 3 0 13.5082642482 -6.381 -101.5904 
96 0 3 0 13.5082642482 -4.963 -101.5904 
97 0 3 0 -14.7362882708 -4.254 -101.5904 
98 0 3 0 -14.7362882708 -2.836 -101.5904 
99 0 3 0 -13.5082642482 -2.127 -101.5904 
100 0 3 0 -13.5082642482 -0.709 -101.5904 
101 0 3 0 -12.2802402257 -4.254 -101.5904 
102 0 3 0 -12.2802402257 -2.836 -101.5904 
103 0 3 0 -11.0522162031 -2.127 -101.5904 
104 0 3 0 -11.0522162031 -0.709 -101.5904 
105 0 3 0 -9.82419218053 -4.254 -101.5904 
106 0 3 0 -9.82419218053 -2.836 -101.5904 
107 0 3 0 -8.59616815796 -2.127 -101.5904 
108 0 3 0 -8.59616815796 -0.709 -101.5904 
109 0 3 0 -7.3681441354 -4.254 -101.5904 
110 0 3 0 -7.3681441354 -2.836 -101.5904 
111 0 3 0 -6.14012011283 -2.127 -101.5904 
112 0 3 0 -6.14012011283 -0.709 -101.5904 
113 0 3 0 -4.91209609027 -4.254 -101.5904 
114 0 3 0 -4.91209609027 -2.836 -101.5904 
115 0 3 0 -3.6840720677 -2.127 -101.5904 
116 0 3 0 -3.6840720677 -0.709 -101.5904 
117 0 3 0 -2.45604804513 -4.254 -101.5904 
118 0 3 0 -2.45604804513 -2.836 -101.5904 
119 0 3 0 -1.22802402257 -2.127 -101.5904 
120 0 3 0 -1.22802402257 -0.709 -101.5904 
121 0 3 0 2.6645352591e-15 -4.254 -101.5904 
122 0 3 0 2.6645352591e-15 -2.836 -101.5904 
123 0 3 0 1.22802402257 -2.127 -101.5904 
124 0 3 0 1.22802402257 -0.709 -101.5904 
125 0 3 0 2.45604804513 -4.254 -101.5904 
126 0 3 0 2.45604804513 -2.836 -101.5904 
127 0 3 0 3.6840720677 -2.127 -101.5904 
128 0 3 0 3.6840720677 -0.709 -101.5904 
129 0 3 0 4.91209609027 -4.254 -101.5904 
130 0 3 0 4.91209609027 -2.836 -101.5904 
131 0 3 0 6.14012011283 -2.127 -101.5904 
132 0 3 0 6.14012011283 -0.709 -101.5904 
133 0 3 0 7.3681441354 -4.254 -101.5904 
134 0 3 0 7.3681441354 -2.836 -101.5904 
135 0 3 0 8.59616815796 -2.127 -101.5904 
136 0 3 0 8.59616815796 -0.709 -101.5904 
137 0 3 0 9.82419218053 -4.254 -101.5904 
138 0 3 0 9.82419218053 -2.836 -101.5904 
139 0 3 0 11.0522162031 -2.127 -101.5904 
140 0 3 0 11.0522162031 -0.709 -101.5904 
141 0 3 0 12.2802402257 -4.254 -101.5904 
142 0 3 0 12.2802402257 -2.836 -101.5904 
143 0 3 0 13.5082642482 -2.127 -101.5904 
144 0 3 0 13.5082642482 -0.709 -101.5904 
145 0 3 0 -14.7362882708 0.0 -101.5904 
146 0 3 0 -14.7362882708 1.418 -101.5904 
147 0 3 0 -13.5082642482 2.127 -101.5904 
148 0 3 0 -13.5082642482 3.545 -101.5904 
149 0 3 0 -12.2802402257 0.0 -101.5904 
150 0 3 0 -12.2802402257 1.418 -101.5904 
151 0 3 0 -11.0522162031 2.127 -101.5904 
152 0 3 0 -11.0522162031 3.545 -101.5904 
153 0 3 0 -9.82419218053 0.0 -101.5904 
154 0 3 0 -9.82419218053 1.418 -101.5904 
155 0 3 0 -8.59616815796 2.127 -101.5904 
156 0 3 0 -8.59616815796 3.545 -101.5904 
157 0 3 0 -7.3681441354 0.0 -101.5904 
158 0 3 0 -7.3681441354 1.418 -101.5904 
159 0 3 0 -6.14012011283 2.127 -101.5904 
160 0 3 0 -6.14012011283 3.545 -101.5904 
161 0 3 0 -4.91209609027 0.0 -101.5904 
162 0 3 0 -4.91209609027 1.418 -101.5904 
163 0 3 0 -3.6840720677 2.127 -101.5904 
164 0 3 0 -3.6840720677 3.545 -101.5904 
165 0 3 0 -2.45604804513 0.0 -101.5904 
166 0 3 0 -2.45604804513 1.418 -101.5904 
167 0 3 0 -1.22802402257 2.127 -101.5904 
168 0 3 0 -1.22802402257 3.545 -101.5904 
169 0 3 0 2.6645352591e-15 0.0 -101.5904 
170 0 3 0 2.6645352591e-15 1.418 -101.5904 
171 0 3 0 1.22802402257 2.127 -101.5904 
172 0 3 0 1.22802402257 3.545 -101.5904 
173 0 3 0 2.45604804513 0.0 -101.5904 
174 0 3 0 2.45604804513 1.418 -101.5904 
175 0 3 0 3.6840720677 2.127 -101.5904 
176 0 3 0 3.6840720677 3.545 -101.5904 
177 0 3 0 4.91209609027 0.0 -101.5904 
178 0 3 0 4.91209609027 1.418 -101.5904 
179 0 3 0 6.14012011283 2.127 -101.5904 
180 0 3 0 6.14012011283 3.545 -101.5904 
181 0 3 0 7.3681441354 0.0 -101.5904 
182 0 3 0 7.3681441354 1.418 -101.5904 
183 0 3 0 8.59616815796 2.127 -101.5904 
184 0 3 0 8.59616815796 3.545 -101.5904 
185 0 3 0 9.82419218053 0.0 -101.5904 
186 0 3 0 9.82419218053 1.418 -101.5904 
187 0 3 0 11.0522162031 2.127 -101.5904 
188 0 3 0 11.0522162031 3.545 -101.5904 
189 0 3 0 12.2802402257 0.0 -101.5904 
190 0 3 0 12.2802402257 1.418 -101.5904 
191 0 3 0 13.5082642482 2.127 -101.5904 
192 0 3 0 13.5082642482 3.545 -101.5904 
193 0 3 0 -14.7362882708 4.254 -101.5904 
194 0 3 0 -14.7362882708 5.672 -101.5904 
195 0 3 0 -13.5082642482 6.381 -101.5904 
196 0 3 0 -13.5082642482 7.799 -101.5904 
197 0 3 0 -12.2802402257 4.254 -101.5904 
198 0 3 0 -12.2802402257 5.672 -101.5904 
199 0 3 0 -11.0522162031 6.381 -101.5904 
200 0 3 0 -11.0522162031 7.799 -101.5904 
201 0 3 0 -9.82419218053 4.254 -101.5904 
202 0 3 0 -9.82419218053 5.672 -101.5904 
203 0 3 0 -8.59616815796 6.381 -101.5904 
204 0 3 0 -8.59616815796 7.799 -101.5904 
205 0 3 0 -7.3681441354 4.254 -101.5904 
206 0 3 0 -7.3681441354 5.672 -101.5904 
207 0 3 0 -6.14012011283 6.381 -101.5904 
208 0 3 0 -6.14012011283 7.799 -101.5904 
209 0 3 0 -4.91209609027 4.254 -101.5904 
210 0 3 0 -4.91209609027 5.672 -101.5904 
211 0 3 0 -3.6840720677 6.381 -101.5904 
212 0 3 0 -3.6840720677 7.799 -101.5904 
213 0 3 0 -2.45604804513 4.254 -101.5904 
214 0 3 0 -2.45604804513 5.672 -101.5904 
215 0 3 0 -1.22802402257 6.381 -101.5904 
216 0 3 0 -1.22802402257 7.799 -101.5904 
217 0 3 0 2.6645352591e-15 4.254 -101.5904 
218 0 3 0 2.6645352591e-15 5.672 -101.5904 
219 0 3 0 1.22802402257 6.381 -101.5904 
220 0 3 0 1.22802402257 7.799 -101.5904 
221 0 3 0 2.45604804513 4.254 -101.5904 
222 0 3 0 2.45604804513 5.672 -101.5904 
223 0 3 0 3.6840720677 6.381 -101.5904 
224 0 3 0 3.6840720677 7.799 -101.5904 
225 0 3 0 4.91209609027 4.254 -101.5904 
226 0 3 0 4.91209609027 5.672 -101.5904 
227 0 3 0 6.14012011283 6.381 -101.5904 
228 0 3 0 6.14012011283 7.799 -101.5904 
229 0 3 0 7.3681441354 4.254 -101.5904 
230 0 3 0 7.3681441354 5.672 -101.5904 
231 0 3 0 8.59616815796 6.381 -101.5904 
232 0 3 0 8.59616815796 7.799 -101.5904 
233 0 3 0 9.82419218053 4.254 -101.5904 
234 0 3 0 9.82419218053 5.672 -101.5904 
235 0 3 0 11.0522162031 6.381 -101.5904 
236 0 3 0 11.0522162031 7.799 -101.5904 
237 0 3 0 12.2802402257 4.254 -101.5904 
238 0 3 0 12.2802402257 5.672 -101.5904 
239 0 3 0 13.5082642482 6.381 -101.5904 
240 0 3 0 13.5082642482 7.799 -101.5904 
241 0 3 0 -14.7362882708 8.508 -101.5904 
242 0 3 0 -14.7362882708 9.926 -101.5904 
243 0 3 0 -13.5082642482 10.635 -101.5904 
244 0 3 0 -13.5082642482 12.053 -101.5904 
245 0 3 0 -12.2802402257 8.508 -101.5904 
246 0 3 0 -12.2802402257 9.926 -101.5904 
247 0 3 0 -11.0522162031 10.635 -101.5904 
248 0 3 0 -11.0522162031 12.053 -101.5904 
249 0 3 0 -9.82419218053 8.508 -101.5904 
250 0 3 0 -9.82419218053 9.926 -101.5904 
251 0 3 0 -8.59616815796 10.635 -101.5904 
252 0 3 0 -8.59616815796 12.053 -101.5904 
253 0 3 0 -7.3681441354 8.508 -101.5904 
254 0 3 0 -7.3681441354 9.926 -101.5904 
255 0 3 0 -6.14012011283 10.635 -101.5904 
256 0 3 0 -6.14012011283 12.053 -101.5904 
257 0 3 0 -4.91209609027 8.508 -101.5904 
258 0 3 0 -4.91209609027 9.926 -101.5904 
259 0 3 0 -3.6840720677 10.635 -101.5904 
260 0 3 0 -3.6840720677 12.053 -101.5904 
261 0 3 0 -2.45604804513 8.508 -101.5904 
262 0 3 0 -2.45604804513 9.926 -101.5904 
263 0 3 0 -1.22802402257 10.635 -101.5904 
264 0 3 0 -1.22802402257 12.053 -101.5904 
265 0 3 0 2.6645352591e-15 8.508 -101.5904 
266 0 3 0 2.6645352591e-15 9.926 -101.5904 
267 0 3 0 1.22802402257 10.635 -101.5904 
268 0 3 0 1.22802402257 12.053 -101.5904 
269 0 3 0 2.45604804513 8.508 -101.5904 
270 0 3 0 2.45604804513 9.926 -101.5904 
271 0 3 0 3.6840720677 10.635 -101.5904 
272 0 3 0 3.6840720677 12.053 -101.5904 
273 0 3 0 4.91209609027 8.508 -101.5904 
274 0 3 0 4.91209609027 9.926 -101.5904 
275 0 3 0 6.14012011283 10.635 -101.5904 
276 0 3 0 6.14012011283 12.053 -101.5904 
277 0 3 0 7.3681441354 8.508 -101.5904 
278 0 3 0 7.3681441354 9.926 -101.5904 
279 0 3 0 8.59616815796 10.635 -101.5904 
280 0 3 0 8.59616815796 12.053 -101.5904 
281 0 3 0 9.82419218053 8.508 -101.5904 
282 0 3 0 9.82419218053 9.926 -101.5904 
283 0 3 0 11.0522162031 10.635 -101.5904 
284 0 3 0 11.0522162031 12.053 -101.5904 
285 0 3 0 12.2802402257 8.508 -101.5904 
286 0 3 0 12.2802402257 9.926 -101.5904 
287 0 3 0 13.5082642482 10.635 -101.5904 
288 0 3 0 13.5082642482 12.053 -101.5904 
289 0 3 0 -14.7362882708 -12.762 -51.048 
290 0 3 0 -14.7362882708 -11.344 -51.048 
291 0 3 0 -13.5082642482 -10.635 -51.048 
292 0 3 0 -13.5082642482 -9.217 -51.048 
293 0 3 0 -12.2802402257 -12.762 -51.048 
294 0 3 0 -12.2802402257 -11.344 -51.048 
295 0 3 0 -11.0522162031 -10.635 -51.048 
296 0 3 0 -11.0522162031 -9.217 -51.048 
297 0 3 0 -9.82419218053 -12.762 -51.048 
298 0 3 0 -9.82419218053 -11.344 -51.048 
299 0 3 0 -8.59616815796 -10.635 -51.048 
300 0 3 0 -8.59616815796 -9.217 -51.048 
301 0 3 0 -7.3681441354 -12.762 -51.048 
302 0 3 0 -7.3681441354 -11.344 -51.048 
303 0 3 0 -6.14012011283 -10.635 -51.048 
304 0 3 0 -6.14012011283 -9.217 -51.048 
305 0 3 0 -4.91209609027 -12.762 -51.048 
306 0 3 0 -4.91209609027 -11.344 -51.048 
307 0 3 0 -3.6840720677 -10.635 -51.048 
308 0 3 0 -3.6840720677 -9.217 -51.048 
309 0 3 0 -2.45604804513 -12.762 -51.048 
310 0 3 0 -2.45604804513 -11.344 -51.048 
311 0 3 0 -1.22802402257 -10.635 -51.048 
312 0 3 0 -1.22802402257 -9.217 -51.048 
313 0 3 0 2.6645352591e-15 -12.762 -51.048 
314 0 3 0 2.6645352591e-15 -11.344 -51.048 
315 0 3 0 1.22802402257 -10.635 -51.048 
316 0 3 0 1.22802402257 -9.217 -51.048 
317 0 3 0 2.45604804513 -12.762 -51.048 
318 0 3 0 2.45604804513 -11.344 -51.048 
319 0 3 0 3.6840720677 -10.635 -51.048 
320 0 3 0 3.6840720677 -9.217 -51.048 
321 0 3 0 4.91209609027 -12.762 -51.048 
322 0 3 0 4.91209609027 -11.344 -51.048 
323 0 3 0 6.14012011283 -10.635 -51.048 
324 0 3 0 6.14012011283 -9.217 -51.048 
325 0 3 0 7.3681441354 -12.762 -51.048 
326 0 3 0 7.3681441354 -11.344 -51.048 
327 0 3 0 8.59616815796 -10.635 -51.048 
328 0 3 0 8.59616815796 -9.217 -51.048 
329 0 3 0 9.82419218053 -12.762 -51.048 
330 0 3 0 9.82419218053 -11.344 -51.048 
331 0 3 0 11.0522162031 -10.635 -51.048 
332 0 3 0 11.0522162031 -9.217 -51.048 
333 0 3 0 12.2802402257 -12.762 -51.048 
334 0 3 0 12.2802402257 -11.344 -51.048 
335 0 3 0 13.5082642482 -10.635 -51.048 
336 0 3 0 13.5082642482 -9.217 -51.048 
337 0 3 0 -14.7362882708 -8.508 -51.048 
338 0 3 0 -14.7362882708 -7.09 -51.048 
339 0 3 0 -13.5082642482 -6.381 -51.048 
340 0 3 0 -13.5082642482 -4.963 -51.048 
341 0 3 0 -12.2802402257 -8.508 -51.048 
342 0 3 0 -12.2802402257 -7.09 -51.048 
343 0 3 0 -11.0522162031 -6.381 -51.048 
344 0 3 0 -11.0522162031 -4.963 -51.048 
345 0 3 0 -9.82419218053 -8.508 -51.048 
346 0 3 0 -9.82419218053 -7.09 -51.048 
347 0 3 0 -8.59616815796 -6.381 -51.048 
348 0 3 0 -8.59616815796 -4.963 -51.048 
349 0 3 0 -7.3681441354 -8.508 -51.048 
350 0 3 0 -7.3681441354 -7.09 -51.048 
351 0 3 0 -6.14012011283 -6.381 -51.048 
352 0 3 0 -6.14012011283 -4.963 -51.048 
353 0 3 0 -4.91209609027 -8.508 -51.048 
354 0 3 0 -4.91209609027 -7.09 -51.048 
355 0 3 0 -3.6840720677 -6.381 -51.048 
356 0 3 0 -3.6840720677 -4.963 -51.048 
357 0 3 0 -2.45604804513 -8.508 -51.048 
358 0 3 0 -2.45604804513 -7.09 -51.048 
359 0 3 0 -1.22802402257 -6.381 -51.048 
360 0 3 0 -1.22802402257 -4.963 -51.048 
361 0 3 0 2.6645352591e-15 -8.508 -51.048 
362 0 3 0 2.6645352591e-15 -7.09 -51.048 
363 0 3 0 1.22802402257 -6.381 -51.048 
364 0 3 0 1.22802402257 -4.963 -51.048 
365 0 3 0 2.45604804513 -8.508 -51.048 
366 0 3 0 2.45604804513 -7.09 -51.048 
367 0 3 0 3.6840720677 -6.381 -51.048 
368 0 3 0 3.6840720677 -4.963 -51.048 
369 0 3 0 4.91209609027 -8.508 -51.048 
370 0 3 0 4.91209609027 -7.09 -51.048 
371 0 3 0 6.14012011283 -6.381 -51.048 
372 0 3 0 6.14012011283 -4.963 -51.048 
373 0 3 0 7.3681441354 -8.508 -51.048 
374 0 3 0 7.3681441354 -7.09 -51.048 
375 0 3 0 8.59616815796 -6.381 -51.048 
376 0 3 0 8.59616815796 -4.963 -51.048 
377 0 3 0 9.82419218053 -8.508 -51.048 
378 0 3 0 9.82419218053 -7.09 -51.048 
379 0 3 0 11.0522162031 -6.381 -51.048 
380 0 3 0 11.0522162031 -4.963 -51.048 
381 0 3 0 12.2802402257 -8.508 -51.048 
382 0 3 0 12.2802402257 -7.09 -51.048 
383 0 3 0 13.5082642482 -6.381 -51.048 
384 0 3 0 13.5082642482 -4.963 -51.048 
385 0 3 0 -14.7362882708 -4.254 -51.048 
386 0 3 0 -14.7362882708 -2.836 -51.048 
387 0 3 0 -13.5082642482 -2.127 -51.048 
388 0 3 0 -13.5082642482 -0.709 -51.048 
389 0 3 0 -12.2802402257 -4.254 -51.048 
390 0 3 0 -12.2802402257 -2.836 -51.048 
391 0 3 0 -11.0522162031 -2.127 -51.048 
392 0 3 0 -11.0522162031 -0.709 -51.048 
393 0 3 0 -9.82419218053 -4.254 -51.048 
394 0 3 0 -9.82419218053 -2.836 -51.048 
395 0 3 0 -8.59616815796 -2.127 -51.048 
396 0 3 0 -8.59616815796 -0.709 -51.048 
397 0 3 0 -7.3681441354 -4.254 -51.048 
398 0 3 0 -7.3681441354 -2.836 -51.048 
399 0 3 0 -6.14012011283 -2.127 -51.048 
400 0 3 0 -6.14012011283 -0.709 -51.048 
401 0 3 0 -4.91209609027 -4.254 -51.048 
402 0 3 0 -4.91209609027 -2.836 -51.048 
403 0 3 0 -3.6840720677 -2.127 -51.048 
404 0 3 0 -3.6840720677 -0.709 -51.048 
405 0 3 0 -2.45604804513 -4.254 -51.048 
406 0 3 0 -2.45604804513 -2.836 -51.048 
407 0 3 0 -1.22802402257 -2.127 -51.048 
408 0 3 0 -1.22802402257 -0.709 -51.048 
409 0 3 0 2.6645352591e-15 -4.254 -51.048 
410 0 3 0 2.6645352591e-15 -2.836 -51.048 
411 0 3 0 1.22802402257 -2.127 -51.048 
412 0 3 0 1.22802402257 -0.709 -51.048 
413 0 3 0 2.45604804513 -4.254 -51.048 
414 0 3 0 2.45604804513 -2.836 -51.048 
415 0 3 0 3.6840720677 -2.127 -51.048 
416 0 3 0 3.6840720677 -0.709 -51.048 
417 0 3 0 4.91209609027 -4.254 -51.048 
418 0 3 0 4.91209609027 -2.836 -51.048 
419 0 3 0 6.14012011283 -2.127 -51.048 
420 0 3 0 6.14012011283 -0.709 -51.048 
421 0 3 0 7.3681441354 -4.254 -51.048 
422 0 3 0 7.3681441354 -2.836 -51.048 
423 0 3 0 8.59616815796 -2.127 -51.048 
424 0 3 0 8.59616815796 -0.709 -51.048 
425 0 3 0 9.82419218053 -4.254 -51.048 
426 0 3 0 9.82419218053 -2.836 -51.048 
427 0 3 0 11.0522162031 -2.127 -51.048 
428 0 3 0 11.0522162031 -0.709 -51.048 
429 0 3 0 12.2802402257 -4.254 -51.048 
430 0 3 0 12.2802402257 -2.836 -51.048 
431 0 3 0 13.5082642482 -2.127 -51.048 
432 0 3 0 13.5082642482 -0.709 -51.048 
433 0 3 0 -14.7362882708 0.0 -51.048 
434 0 3 0 -14.7362882708 1.418 -51.048 
435 0 3 0 -13.5082642482 2.127 -51.048 
436 0 3 0 -13.5082642482 3.545 -51.048 
437 0 3 0 -12.2802402257 0.0 -51.048 
438 0 3 0 -12.2802402257 1.418 -51.048 
439 0 3 0 -11.0522162031 2.127 -51.048 
440 0 3 0 -11.0522162031 3.545 -51.048 
441 0 3 0 -9.82419218053 0.0 -51.048 
442 0 3 0 -9.82419218053 1.418 -51.048 
443 0 3 0 -8.59616815796 2.127 -51.048 
444 0 3 0 -8.59616815796 3.545 -51.048 
445 0 3 0 -7.3681441354 0.0 -51.048 
446 0 3 0 -7.3681441354 1.418 -51.048 
447 0 3 0 -6.14012011283 2.127 -51.048 
448 0 3 0 -6.14012011283 3.545 -51.048 
449 0 3 0 -4.91209609027 0.0 -51.048 
450 0 3 0 -4.91209609027 1.418 -51.048 
451 0 3 0 -3.6840720677 2.127 -51.048 
452 0 3 0 -3.6840720677 3.545 -51.048 
453 0 3 0 -2.45604804513 0.0 -51.048 
454 0 3 0 -2.45604804513 1.418 -51.048 
455 0 3 0 -1.22802402257 2.127 -51.048 
456 0 3 0 -1.22802402257 3.545 -51.048 
457 0 3 0 2.6645352591e-15 0.0 -51.048 
458 0 3 0 2.6645352591e-15 1.418 -51.048 
459 0 3 0 1.22802402257 2.127 -51.048 
460 0 3 0 1.22802402257 3.545 -51.048 
461 0 3 0 2.45604804513 0.0 -51.048 
462 0 3 0 2.45604804513 1.418 -51.048 
463 0 3 0 3.6840720677 2.127 -51.048 
464 0 3 0 3.6840720677 3.545 -51.048 
465 0 3 0 4.91209609027 0.0 -51.048 
466 0 3 0 4.91209609027 1.418 -51.048 
467 0 3 0 6.14012011283 2.127 -51.048 
468 0 3 0 6.14012011283 3.545 -51.048 
469 0 3 0 7.3681441354 0.0 -51.048 
470 0 3 0 7.3681441354 1.418 -51.048 
471 0 3 0 8.59616815796 2.127 -51.048 
472 0 3 0 8.59616815796 3.545 -51.048 
473 0 3 0 9.82419218053 0.0 -51.048 
474 0 3 0 9.82419218053 1.418 -51.048 
475 0 3 0 11.0522162031 2.127 -51.048 
476 0 3 0 11.0522162031 3.545 -51.048 
477 0 3 0 12.2802402257 0.0 -51.048 
478 0 3 0 12.2802402257 1.418 -51.048 
479 0 3 0 13.5082642482 2.127 -51.048 
480 0 3 0 13.5082642482 3.545 -51.048 
481 0 3 0 -14.7362882708 4.254 -51.048 
482 0 3 0 -14.7362882708 5.672 -51.048 
483 0 3 0 -13.5082642482 6.381 -51.048 
484 0 3 0 -13.5082642482 7.799 -51.048 
485 0 3 0 -12.2802402257 4.254 -51.048 
486 0 3 0 -12.2802402257 5.672 -51.048 
487 0 3 0 -11.0522162031 6.381 -51.048 
488 0 3 0 -11.0522162031 7.799 -51.048 
489 0 3 0 -9.82419218053 4.254 -51.048 
490 0 3 0 -9.82419218053 5.672 -51.048 
491 0 3 0 -8.59616815796 6.381 -51.048 
492 0 3 0 -8.59616815796 7.799 -51.048 
493 0 3 0 -7.3681441354 4.254 -51.048 
494 0 3 0 -7.3681441354 5.672 -51.048 
495 0 3 0 -6.14012011283 6.381 -51.048 
496 0 3 0 -6.14012011283 7.799 -51.048 
497 0 3 0 -4.91209609027 4.254 -51.048 
498 0 3 0 -4.91209609027 5.672 -51.048 
499 0 3 0 -3.6840720677 6.381 -51.048 
500 0 3 0 -3.6840720677 7.799 -51.048 
501 0 3 0 -2.45604804513 4.254 -51.048 
502 0 3 0 -2.45604804513 5.672 -51.048 
503 0 3 0 -1.22802402257 6.381 -51.048 
504 0 3 0 -1.22802402257 7.799 -51.048 
505 0 3 0 2.6645352591e-15 4.254 -51.048 
506 0 3 0 2.6645352591e-15 5.672 -51.048 
507 0 3 0 1.22802402257 6.381 -51.048 
508 0 3 0 1.22802402257 7.799 -51.048 
509 0 3 0 2.45604804513 4.254 -51.048 
510 0 3 0 2.45604804513 5.672 -51.048 
511 0 3 0 3.6840720677 6.381 -51.048 
512 0 3 0 3.6840720677 7.799 -51.048 
513 0 3 0 4.91209609027 4.254 -51.048 
514 0 3 0 4.91209609027 5.672 -51.048 
515 0 3 0 6.14012011283 6.381 -51.048 
516 0 3 0 6.14012011283 7.799 -51.048 
517 0 3 0 7.3681441354 4.254 -51.048 
518 0 3 0 7.3681441354 5.672 -51.048 
519 0 3 0 8.59616815796 6.381 -51.048 
520 0 3 0 8.59616815796 7.799 -51.048 
521 0 3 0 9.82419218053 4.254 -51.048 
522 0 3 0 9.82419218053 5.672 -51.048 
523 0 3 0 11.0522162031 6.381 -51.048 
524 0 3 0 11.0522162031 7.799 -51.048 
525 0 3 0 12.2802402257 4.254 -51.048 
526 0 3 0 12.2802402257 5.672 -51.048 
527 0 3 0 13.5082642482 6.381 -51.048 
528 0 3 0 13.5082642482 7.799 -51.048 
529 0 3 0 -14.7362882708 8.508 -51.048 
530 0 3 0 -14.7362882708 9.926 -51.048 
531 0 3 0 -13.5082642482 10.635 -51.048 
532 0 3 0 -13.5082642482 12.053 -51.048 
533 0 3 0 -12.2802402257 8.508 -51.048 
534 0 3 0 -12.2802402257 9.926 -51.048 
535 0 3 0 -11.0522162031 10.635 -51.048 
536 0 3 0 -11.0522162031 12.053 -51.048 
537 0 3 0 -9.82419218053 8.508 -51.048 
538 0 3 0 -9.82419218053 9.926 -51.048 
539 0 3 0 -8.59616815796 10.635 -51.048 
540 0 3 0 -8.59616815796 12.053 -51.048 
541 0 3 0 -7.3681441354 8.508 -51.048 
542 0 3 0 -7.3681441354 9.926 -51.048 
543 0 3 0 -6.14012011283 10.635 -51.048 
544 0 3 0 -6.14012011283 12.053 -51.048 
545 0 3 0 -4.91209609027 8.508 -51.048 
546 0 3 0 -4.91209609027 9.926 -51.048 
547 0 3 0 -3.6840720677 10.635 -51.048 
548 0 3 0 -3.6840720677 12.053 -51.048 
549 0 3 0 -2.45604804513 8.508 -51.048 
550 0 3 0 -2.45604804513 9.926 -51.048 
551 0 3 0 -1.22802402257 10.635 -51.048 
552 0 3 0 -1.22802402257 12.053 -51.048 
553 0 3 0 2.6645352591e-15 8.508 -51.048 
554 0 3 0 2.6645352591e-15 9.926 -51.048 
555 0 3 0 1.22802402257 10.635 -51.048 
556 0 3 0 1.22802402257 12.053 -51.048 
557 0 3 0 2.45604804513 8.508 -51.048 
558 0 3 0 2.45604804513 9.926 -51.048 
559 0 3 0 3.6840720677 10.635 -51.048 
560 0 3 0 3.6840720677 12.053 -51.048 
561 0 3 0 4.91209609027 8.508 -51.048 
562 0 3 0 4.91209609027 9.926 -51.048 
563 0 3 0 6.14012011283 10.635 -51.048 
564 0 3 0 6.14012011283 12.053 -51.048 
565 0 3 0 7.3681441354 8.508 -51.048 
566 0 3 0 7.3681441354 9.926 -51.048 
567 0 3 0 8.59616815796 10.635 -51.048 
568 0 3 0 8.59616815796 12.053 -51.048 
569 0 3 0 9.82419218053 8.508 -51.048 
570 0 3 0 9.82419218053 9.926 -51.048 
571 0 3 0 11.0522162031 10.635 -51.048 
572 0 3 0 11.0522162031 12.053 -51.048 
573 0 3 0 12.2802402257 8.508 -51.048 
574 0 3 0 12.2802402257 9.926 -51.048 
575 0 3 0 13.5082642482 10.635 -51.048 
576 0 3 0 13.5082642482 12.053 -51.048 
577 0 3 0 -14.7362882708 -12.762 51.048 
578 0 3 0 -14.7362882708 -11.344 51.048 
579 0 3 0 -13.5082642482 -10.635 51.048 
580 0 3 0 -13.5082642482 -9.217 51.048 
581 0 3 0 -12.2802402257 -12.762 51.048 
582 0 3 0 -12.2802402257 -11.344 51.048 
583 0 3 0 -11.0522162031 -10.635 51.048 
584 0 3 0 -11.0522162031 -9.217 51.048 
585 0 3 0 -9.82419218053 -12.762 51.048 
586 0 3 0 -9.82419218053 -11.344 51.048 
587 0 3 0 -8.59616815796 -10.635 51.048 
588 0 3 0 -8.59616815796 -9.217 51.048 
589 0 3 0 -7.3681441354 -12.762 51.048 
590 0 3 0 -7.3681441354 -11.344 51.048 
591 0 3 0 -6.14012011283 -10.635 51.048 
592 0 3 0 -6.14012011283 -9.217 51.048 
593 0 3 0 -4.91209609027 -12.762 51.048 
594 0 3 0 -4.91209609027 -11.344 51.048 
595 0 3 0 -3.6840720677 -10.635 51.048 
596 0 3 0 -3.6840720677 -9.217 51.048 
597 0 3 0 -2.45604804513 -12.762 51.048 
598 0 3 0 -2.45604804513 -11.344 51.048 
599 0 3 0 -1.22802402257 -10.635 51.048 
600 0 3 0 -1.22802402257 -9.217 51.048 
601 0 3 0 2.6645352591e-15 -12.762 51.048 
602 0 3 0 2.6645352591e-15 -11.344 51.048 
603 0 3 0 1.22802402257 -10.635 51.048 
604 0 3 0 1.22802402257 -9.217 51.048 
605 0 3 0 2.45604804513 -12.762 51.048 
606 0 3 0 2.45604804513 -11.344 51.048 
607 0 3 0 3.6840720677 -10.635 51.048 
608 0 3 0 3.6840720677 -9.217 51.048 
609 0 3 0 4.91209609027 -12.762 51.048 
610 0 3 0 4.91209609027 -11.344 51.048 
611 0 3 0 6.14012011283 -10.635 51.048 
612 0 3 0 6.14012011283 -9.217 51.048 
613 0 3 0 7.3681441354 -12.762 51.048 
614 0 3 0 7.3681441354 -11.344 51.048 
615 0 3 0 8.59616815796 -10.635 51.048 
616 0 3 0 8.59616815796 -9.217 51.048 
617 0 3 0 9.82419218053 -12.762 51.048 
618 0 3 0 9.82419218053 -11.344 51.048 
619 0 3 0 11.0522162031 -10.635 51.048 
620 0 3 0 11.0522162031 -9.217 51.048 
621 0 3 0 12.2802402257 -12.762 51.048 
622 0 3 0 12.2802402257 -11.344 51.048 
623 0 3 0 13.5082642482 -10.635 51.048 
624 0 3 0 13.5082642482 -9.217 51.048 
625 0 3 0 -14.7362882708 -8.508 51.048 
626 0 3 0 -14.7362882708 -7.09 51.048 
627 0 3 0 -13.5082642482 -6.381 51.048 
628 0 3 0 -13.5082642482 -4.963 51.048 
629 0 3 0 -12.2802402257 -8.508 51.048 
630 0 3 0 -12.2802402257 -7.09 51.048 
631 0 3 0 -11.0522162031 -6.381 51.048 
632 0 3 0 -11.0522162031 -4.963 51.048 
633 0 3 0 -9.82419218053 -8.508 51.048 
634 0 3 0 -9.82419218053 -7.09 51.048 
635 0 3 0 -8.59616815796 -6.381 51.048 
636 0 3 0 -8.59616815796 -4.963 51.048 
637 0 3 0 -7.3681441354 -8.508 51.048 
638 0 3 0 -7.3681441354 -7.09 51.048 
639 0 3 0 -6.14012011283 -6.381 51.048 
640 0 3 0 -6.14012011283 -4.963 51.048 
641 0 3 0 -4.91209609027 -8.508 51.048 
642 0 3 0 -4.91209609027 -7.09 51.048 
643 0 3 0 -3.6840720677 -6.381 51.048 
644 0 3 0 -3.6840720677 -4.963 51.048 
645 0 3 0 -2.45604804513 -8.508 51.048 
646 0 3 0 -2.45604804513 -7.09 51.048 
647 0 3 0 -1.22802402257 -6.381 51.048 
648 0 3 0 -1.22802402257 -4.963 51.048 
649 0 3 0 2.6645352591e-15 -8.508 51.048 
650 0 3 0 2.6645352591e-15 -7.09 51.048 
651 0 3 0 1.22802402257 -6.381 51.048 
652 0 3 0 1.22802402257 -4.963 51.048 
653 0 3 0 2.45604804513 -8.508 51.048 
654 0 3 0 2.45604804513 -7.09 51.048 
655 0 3 0 3.6840720677 -6.381 51.048 
656 0 3 0 3.6840720677 -4.963 51.048 
657 0 3 0 4.91209609027 -8.508 51.048 
658 0 3 0 4.91209609027 -7.09 51.048 
659 0 3 0 6.14012011283 -6.381 51.048 
660 0 3 0 6.14012011283 -4.963 51.048 
661 0 3 0 7.3681441354 -8.508 51.048 
662 0 3 0 7.3681441354 -7.09 51.048 
663 0 3 0 8.59616815796 -6.381 51.048 
664 0 3 0 8.59616815796 -4.963 51.048 
665 0 3 0 9.82419218053 -8.508 51.048 
666 0 3 0 9.82419218053 -7.09 51.048 
667 0 3 0 11.0522162031 -6.381 51.048 
668 0 3 0 11.0522162031 -4.963 51.048 
669 0 3 0 12.2802402257 -8.508 51.048 
670 0 3 0 12.2802402257 -7.09 51.048 
671 0 3 0 13.5082642482 -6.381 51.048 
672 0 3 0 13.5082642482 -4.963 51.048 
673 0 3 0 -14.7362882708 -4.254 51.048 
674 0 3 0 -14.7362882708 -2.836 51.048 
675 0 3 0 -13.5082642482 -2.127 51.048 
676 0 3 0 -13.5082642482 -0.709 51.048 
677 0 3 0 -12.2802402257 -4.254 51.048 
678 0 3 0 -12.2802402257 -2.836 51.048 
679 0 3 0 -11.0522162031 -2.127 51.048 
680 0 3 0 -11.0522162031 -0.709 51.048 
681 0 3 0 -9.82419218053 -4.254 51.048 
682 0 3 0 -9.82419218053 -2.836 51.048 
683 0 3 0 -8.59616815796 -2.127 51.048 
684 0 3 0 -8.59616815796 -0.709 51.048 
685 0 3 0 -7.3681441354 -4.254 51.048 
686 0 3 0 -7.3681441354 -2.836 51.048 
687 0 3 0 -6.14012011283 -2.127 51.048 
688 0 3 0 -6.14012011283 -0.709 51.048 
689 0 3 0 -4.91209609027 -4.254 51.048 
690 0 3 0 -4.91209609027 -2.836 51.048 
691 0 3 0 -3.6840720677 -2.127 51.048 
692 0 3 0 -3.6840720677 -0.709 51.048 
693 0 3 0 -2.45604804513 -4.254 51.048 
694 0 3 0 -2.45604804513 -2.836 51.048 
695 0 3 0 -1.22802402257 -2.127 51.048 
696 0 3 0 -1.22802402257 -0.709 51.048 
697 0 3 0 2.6645352591e-15 -4.254 51.048 
698 0 3 0 2.6645352591e-15 -2.836 51.048 
699 0 3 0 1.22802402257 -2.127 51.048 
700 0 3 0 1.22802402257 -0.709 51.048 
701 0 3 0 2.45604804513 -4.254 51.048 
702 0 3 0 2.45604804513 -2.836 51.048 
703 0 3 0 3.6840720677 -2.127 51.048 
704 0 3 0 3.6840720677 -0.709 51.048 
705 0 3 0 4.91209609027 -4.254 51.048 
706 0 3 0 4.91209609027 -2.836 51.048 
707 0 3 0 6.14012011283 -2.127 51.048 
708 0 3 0 6.14012011283 -0.709 51.048 
709 0 3 0 7.3681441354 -4.254 51.048 
710 0 3 0 7.3681441354 -2.836 51.048 
711 0 3 0 8.59616815796 -2.127 51.048 
712 0 3 0 8.59616815796 -0.709 51.048 
713 0 3 0 9.82419218053 -4.254 51.048 
714 0 3 0 9.82419218053 -2.836 51.048 
715 0 3 0 11.0522162031 -2.127 51.048 
716 0 3 0 11.0522162031 -0.709 51.048 
717 0 3 0 12.2802402257 -4.254 51.048 
718 0 3 0 12.2802402257 -2.836 51.048 
719 0 3 0 13.5082642482 -2.127 51.048 
720 0 3 0 13.5082642482 -0.709 51.048 
721 0 3 0 -14.7362882708 0.0 51.048 
722 0 3 0 -14.7362882708 1.418 51.048 
723 0 3 0 -13.5082642482 2.127 51.048 
724 0 3 0 -13.5082642482 3.545 51.048 
725 0 3 0 -12.2802402257 0.0 51.048 
726 0 3 0 -12.2802402257 1.418 51.048 
727 0 3 0 -11.0522162031 2.127 51.048 
728 0 3 0 -11.0522162031 3.545 51.048 
729 0 3 0 -9.82419218053 0.0 51.048 
730 0 3 0 -9.82419218053 1.418 51.048 
731 0 3 0 -8.59616815796 2.127 51.048 
732 0 3 0 -8.59616815796 3.545 51.048 
733 0 3 0 -7.3681441354 0.0 51.048 