# Data file LAMMPS

2187 atoms
1458 bonds
729 angles

2 atom types
1 bond types
1 angle types

-15 15 xlo xhi 
-15 15 ylo yhi 
-15 15 zlo zhi 

Masses 
 
1 1.00794
2 15.9994

1 1 2 -1.1128 -13.42055 -13.42055 -13.42055
2 1 1 0.5564 -12.46215 -13.42055 -13.42055
3 1 1 0.5564 -12.4926773015 -12.4926773015 -13.42055
4 2 2 -1.1128 -13.42055 -13.42055 -10.26165
5 2 1 0.5564 -12.46215 -13.42055 -10.26165
6 2 1 0.5564 -12.4926773015 -12.4926773015 -10.26165
7 3 2 -1.1128 -13.42055 -13.42055 -7.10275
8 3 1 0.5564 -12.46215 -13.42055 -7.10275
9 3 1 0.5564 -12.4926773015 -12.4926773015 -7.10275
10 4 2 -1.1128 -13.42055 -13.42055 -3.94385
11 4 1 0.5564 -12.46215 -13.42055 -3.94385
12 4 1 0.5564 -12.4926773015 -12.4926773015 -3.94385
13 5 2 -1.1128 -13.42055 -13.42055 -0.78495
14 5 1 0.5564 -12.46215 -13.42055 -0.78495
15 5 1 0.5564 -12.4926773015 -12.4926773015 -0.78495
16 6 2 -1.1128 -13.42055 -13.42055 2.37395
17 6 1 0.5564 -12.46215 -13.42055 2.37395
18 6 1 0.5564 -12.4926773015 -12.4926773015 2.37395
19 7 2 -1.1128 -13.42055 -13.42055 5.53285
20 7 1 0.5564 -12.46215 -13.42055 5.53285
21 7 1 0.5564 -12.4926773015 -12.4926773015 5.53285
22 8 2 -1.1128 -13.42055 -13.42055 8.69175
23 8 1 0.5564 -12.46215 -13.42055 8.69175
24 8 1 0.5564 -12.4926773015 -12.4926773015 8.69175
25 9 2 -1.1128 -13.42055 -13.42055 11.85065
26 9 1 0.5564 -12.46215 -13.42055 11.85065
27 9 1 0.5564 -12.4926773015 -12.4926773015 11.85065
28 10 2 -1.1128 -13.42055 -10.26165 -13.42055
29 10 1 0.5564 -12.46215 -10.26165 -13.42055
30 10 1 0.5564 -12.4926773015 -9.33377730146 -13.42055
31 11 2 -1.1128 -13.42055 -10.26165 -10.26165
32 11 1 0.5564 -12.46215 -10.26165 -10.26165
33 11 1 0.5564 -12.4926773015 -9.33377730146 -10.26165
34 12 2 -1.1128 -13.42055 -10.26165 -7.10275
35 12 1 0.5564 -12.46215 -10.26165 -7.10275
36 12 1 0.5564 -12.4926773015 -9.33377730146 -7.10275
37 13 2 -1.1128 -13.42055 -10.26165 -3.94385
38 13 1 0.5564 -12.46215 -10.26165 -3.94385
39 13 1 0.5564 -12.4926773015 -9.33377730146 -3.94385
40 14 2 -1.1128 -13.42055 -10.26165 -0.78495
41 14 1 0.5564 -12.46215 -10.26165 -0.78495
42 14 1 0.5564 -12.4926773015 -9.33377730146 -0.78495
43 15 2 -1.1128 -13.42055 -10.26165 2.37395
44 15 1 0.5564 -12.46215 -10.26165 2.37395
45 15 1 0.5564 -12.4926773015 -9.33377730146 2.37395
46 16 2 -1.1128 -13.42055 -10.26165 5.53285
47 16 1 0.5564 -12.46215 -10.26165 5.53285
48 16 1 0.5564 -12.4926773015 -9.33377730146 5.53285
49 17 2 -1.1128 -13.42055 -10.26165 8.69175
50 17 1 0.5564 -12.46215 -10.26165 8.69175
51 17 1 0.5564 -12.4926773015 -9.33377730146 8.69175
52 18 2 -1.1128 -13.42055 -10.26165 11.85065
53 18 1 0.5564 -12.46215 -10.26165 11.85065
54 18 1 0.5564 -12.4926773015 -9.33377730146 11.85065
55 19 2 -1.1128 -13.42055 -7.10275 -13.42055
56 19 1 0.5564 -12.46215 -7.10275 -13.42055
57 19 1 0.5564 -12.4926773015 -6.17487730146 -13.42055
58 20 2 -1.1128 -13.42055 -7.10275 -10.26165
59 20 1 0.5564 -12.46215 -7.10275 -10.26165
60 20 1 0.5564 -12.4926773015 -6.17487730146 -10.26165
61 21 2 -1.1128 -13.42055 -7.10275 -7.10275
62 21 1 0.5564 -12.46215 -7.10275 -7.10275
63 21 1 0.5564 -12.4926773015 -6.17487730146 -7.10275
64 22 2 -1.1128 -13.42055 -7.10275 -3.94385
65 22 1 0.5564 -12.46215 -7.10275 -3.94385
66 22 1 0.5564 -12.4926773015 -6.17487730146 -3.94385
67 23 2 -1.1128 -13.42055 -7.10275 -0.78495
68 23 1 0.5564 -12.46215 -7.10275 -0.78495
69 23 1 0.5564 -12.4926773015 -6.17487730146 -0.78495
70 24 2 -1.1128 -13.42055 -7.10275 2.37395
71 24 1 0.5564 -12.46215 -7.10275 2.37395
72 24 1 0.5564 -12.4926773015 -6.17487730146 2.37395
73 25 2 -1.1128 -13.42055 -7.10275 5.53285
74 25 1 0.5564 -12.46215 -7.10275 5.53285
75 25 1 0.5564 -12.4926773015 -6.17487730146 5.53285
76 26 2 -1.1128 -13.42055 -7.10275 8.69175
77 26 1 0.5564 -12.46215 -7.10275 8.69175
78 26 1 0.5564 -12.4926773015 -6.17487730146 8.69175
79 27 2 -1.1128 -13.42055 -7.10275 11.85065
80 27 1 0.5564 -12.46215 -7.10275 11.85065
81 27 1 0.5564 -12.4926773015 -6.17487730146 11.85065
82 28 2 -1.1128 -13.42055 -3.94385 -13.42055
83 28 1 0.5564 -12.46215 -3.94385 -13.42055
84 28 1 0.5564 -12.4926773015 -3.01597730146 -13.42055
85 29 2 -1.1128 -13.42055 -3.94385 -10.26165
86 29 1 0.5564 -12.46215 -3.94385 -10.26165
87 29 1 0.5564 -12.4926773015 -3.01597730146 -10.26165
88 30 2 -1.1128 -13.42055 -3.94385 -7.10275
89 30 1 0.5564 -12.46215 -3.94385 -7.10275
90 30 1 0.5564 -12.4926773015 -3.01597730146 -7.10275
91 31 2 -1.1128 -13.42055 -3.94385 -3.94385
92 31 1 0.5564 -12.46215 -3.94385 -3.94385
93 31 1 0.5564 -12.4926773015 -3.01597730146 -3.94385
94 32 2 -1.1128 -13.42055 -3.94385 -0.78495
95 32 1 0.5564 -12.46215 -3.94385 -0.78495
96 32 1 0.5564 -12.4926773015 -3.01597730146 -0.78495
97 33 2 -1.1128 -13.42055 -3.94385 2.37395
98 33 1 0.5564 -12.46215 -3.94385 2.37395
99 33 1 0.5564 -12.4926773015 -3.01597730146 2.37395
100 34 2 -1.1128 -13.42055 -3.94385 5.53285
101 34 1 0.5564 -12.46215 -3.94385 5.53285
102 34 1 0.5564 -12.4926773015 -3.01597730146 5.53285
103 35 2 -1.1128 -13.42055 -3.94385 8.69175
104 35 1 0.5564 -12.46215 -3.94385 8.69175
105 35 1 0.5564 -12.4926773015 -3.01597730146 8.69175
106 36 2 -1.1128 -13.42055 -3.94385 11.85065
107 36 1 0.5564 -12.46215 -3.94385 11.85065
108 36 1 0.5564 -12.4926773015 -3.01597730146 11.85065
109 37 2 -1.1128 -13.42055 -0.78495 -13.42055
110 37 1 0.5564 -12.46215 -0.78495 -13.42055
111 37 1 0.5564 -12.4926773015 0.142922698538 -13.42055
112 38 2 -1.1128 -13.42055 -0.78495 -10.26165
113 38 1 0.5564 -12.46215 -0.78495 -10.26165
114 38 1 0.5564 -12.4926773015 0.142922698538 -10.26165
115 39 2 -1.1128 -13.42055 -0.78495 -7.10275
116 39 1 0.5564 -12.46215 -0.78495 -7.10275
117 39 1 0.5564 -12.4926773015 0.142922698538 -7.10275
118 40 2 -1.1128 -13.42055 -0.78495 -3.94385
119 40 1 0.5564 -12.46215 -0.78495 -3.94385
120 40 1 0.5564 -12.4926773015 0.142922698538 -3.94385
121 41 2 -1.1128 -13.42055 -0.78495 -0.78495
122 41 1 0.5564 -12.46215 -0.78495 -0.78495
123 41 1 0.5564 -12.4926773015 0.142922698538 -0.78495
124 42 2 -1.1128 -13.42055 -0.78495 2.37395
125 42 1 0.5564 -12.46215 -0.78495 2.37395
126 42 1 0.5564 -12.4926773015 0.142922698538 2.37395
127 43 2 -1.1128 -13.42055 -0.78495 5.53285
128 43 1 0.5564 -12.46215 -0.78495 5.53285
129 43 1 0.5564 -12.4926773015 0.142922698538 5.53285
130 44 2 -1.1128 -13.42055 -0.78495 8.69175
131 44 1 0.5564 -12.46215 -0.78495 8.69175
132 44 1 0.5564 -12.4926773015 0.142922698538 8.69175
133 45 2 -1.1128 -13.42055 -0.78495 11.85065
134 45 1 0.5564 -12.46215 -0.78495 11.85065
135 45 1 0.5564 -12.4926773015 0.142922698538 11.85065
136 46 2 -1.1128 -13.42055 2.37395 -13.42055
137 46 1 0.5564 -12.46215 2.37395 -13.42055
138 46 1 0.5564 -12.4926773015 3.30182269854 -13.42055
139 47 2 -1.1128 -13.42055 2.37395 -10.26165
140 47 1 0.5564 -12.46215 2.37395 -10.26165
141 47 1 0.5564 -12.4926773015 3.30182269854 -10.26165
142 48 2 -1.1128 -13.42055 2.37395 -7.10275
143 48 1 0.5564 -12.46215 2.37395 -7.10275
144 48 1 0.5564 -12.4926773015 3.30182269854 -7.10275
145 49 2 -1.1128 -13.42055 2.37395 -3.94385
146 49 1 0.5564 -12.46215 2.37395 -3.94385
147 49 1 0.5564 -12.4926773015 3.30182269854 -3.94385
148 50 2 -1.1128 -13.42055 2.37395 -0.78495
149 50 1 0.5564 -12.46215 2.37395 -0.78495
150 50 1 0.5564 -12.4926773015 3.30182269854 -0.78495
151 51 2 -1.1128 -13.42055 2.37395 2.37395
152 51 1 0.5564 -12.46215 2.37395 2.37395
153 51 1 0.5564 -12.4926773015 3.30182269854 2.37395
154 52 2 -1.1128 -13.42055 2.37395 5.53285
155 52 1 0.5564 -12.46215 2.37395 5.53285
156 52 1 0.5564 -12.4926773015 3.30182269854 5.53285
157 53 2 -1.1128 -13.42055 2.37395 8.69175
158 53 1 0.5564 -12.46215 2.37395 8.69175
159 53 1 0.5564 -12.4926773015 3.30182269854 8.69175
160 54 2 -1.1128 -13.42055 2.37395 11.85065
161 54 1 0.5564 -12.46215 2.37395 11.85065
162 54 1 0.5564 -12.4926773015 3.30182269854 11.85065
163 55 2 -1.1128 -13.42055 5.53285 -13.42055
164 55 1 0.5564 -12.46215 5.53285 -13.42055
165 55 1 0.5564 -12.4926773015 6.46072269854 -13.42055
166 56 2 -1.1128 -13.42055 5.53285 -10.26165
167 56 1 0.5564 -12.46215 5.53285 -10.26165
168 56 1 0.5564 -12.4926773015 6.46072269854 -10.26165
169 57 2 -1.1128 -13.42055 5.53285 -7.10275
170 57 1 0.5564 -12.46215 5.53285 -7.10275
171 57 1 0.5564 -12.4926773015 6.46072269854 -7.10275
172 58 2 -1.1128 -13.42055 5.53285 -3.94385
173 58 1 0.5564 -12.46215 5.53285 -3.94385
174 58 1 0.5564 -12.4926773015 6.46072269854 -3.94385
175 59 2 -1.1128 -13.42055 5.53285 -0.78495
176 59 1 0.5564 -12.46215 5.53285 -0.78495
177 59 1 0.5564 -12.4926773015 6.46072269854 -0.78495
178 60 2 -1.1128 -13.42055 5.53285 2.37395
179 60 1 0.5564 -12.46215 5.53285 2.37395
180 60 1 0.5564 -12.4926773015 6.46072269854 2.37395
181 61 2 -1.1128 -13.42055 5.53285 5.53285
182 61 1 0.5564 -12.46215 5.53285 5.53285
183 61 1 0.5564 -12.4926773015 6.46072269854 5.53285
184 62 2 -1.1128 -13.42055 5.53285 8.69175
185 62 1 0.5564 -12.46215 5.53285 8.69175
186 62 1 0.5564 -12.4926773015 6.46072269854 8.69175
187 63 2 -1.1128 -13.42055 5.53285 11.85065
188 63 1 0.5564 -12.46215 5.53285 11.85065
189 63 1 0.5564 -12.4926773015 6.46072269854 11.85065
190 64 2 -1.1128 -13.42055 8.69175 -13.42055
191 64 1 0.5564 -12.46215 8.69175 -13.42055
192 64 1 0.5564 -12.4926773015 9.61962269854 -13.42055
193 65 2 -1.1128 -13.42055 8.69175 -10.26165
194 65 1 0.5564 -12.46215 8.69175 -10.26165
195 65 1 0.5564 -12.4926773015 9.61962269854 -10.26165
196 66 2 -1.1128 -13.42055 8.69175 -7.10275
197 66 1 0.5564 -12.46215 8.69175 -7.10275
198 66 1 0.5564 -12.4926773015 9.61962269854 -7.10275
199 67 2 -1.1128 -13.42055 8.69175 -3.94385
200 67 1 0.5564 -12.46215 8.69175 -3.94385
201 67 1 0.5564 -12.4926773015 9.61962269854 -3.94385
202 68 2 -1.1128 -13.42055 8.69175 -0.78495
203 68 1 0.5564 -12.46215 8.69175 -0.78495
204 68 1 0.5564 -12.4926773015 9.61962269854 -0.78495
205 69 2 -1.1128 -13.42055 8.69175 2.37395
206 69 1 0.5564 -12.46215 8.69175 2.37395
207 69 1 0.5564 -12.4926773015 9.61962269854 2.37395
208 70 2 -1.1128 -13.42055 8.69175 5.53285
209 70 1 0.5564 -12.46215 8.69175 5.53285
210 70 1 0.5564 -12.4926773015 9.61962269854 5.53285
211 71 2 -1.1128 -13.42055 8.69175 8.69175
212 71 1 0.5564 -12.46215 8.69175 8.69175
213 71 1 0.5564 -12.4926773015 9.61962269854 8.69175
214 72 2 -1.1128 -13.42055 8.69175 11.85065
215 72 1 0.5564 -12.46215 8.69175 11.85065
216 72 1 0.5564 -12.4926773015 9.61962269854 11.85065
217 73 2 -1.1128 -13.42055 11.85065 -13.42055
218 73 1 0.5564 -12.46215 11.85065 -13.42055
219 73 1 0.5564 -12.4926773015 12.7785226985 -13.42055
220 74 2 -1.1128 -13.42055 11.85065 -10.26165
221 74 1 0.5564 -12.46215 11.85065 -10.26165
222 74 1 0.5564 -12.4926773015 12.7785226985 -10.26165
223 75 2 -1.1128 -13.42055 11.85065 -7.10275
224 75 1 0.5564 -12.46215 11.85065 -7.10275
225 75 1 0.5564 -12.4926773015 12.7785226985 -7.10275
226 76 2 -1.1128 -13.42055 11.85065 -3.94385
227 76 1 0.5564 -12.46215 11.85065 -3.94385
228 76 1 0.5564 -12.4926773015 12.7785226985 -3.94385
229 77 2 -1.1128 -13.42055 11.85065 -0.78495
230 77 1 0.5564 -12.46215 11.85065 -0.78495
231 77 1 0.5564 -12.4926773015 12.7785226985 -0.78495
232 78 2 -1.1128 -13.42055 11.85065 2.37395
233 78 1 0.5564 -12.46215 11.85065 2.37395
234 78 1 0.5564 -12.4926773015 12.7785226985 2.37395
235 79 2 -1.1128 -13.42055 11.85065 5.53285
236 79 1 0.5564 -12.46215 11.85065 5.53285
237 79 1 0.5564 -12.4926773015 12.7785226985 5.53285
238 80 2 -1.1128 -13.42055 11.85065 8.69175
239 80 1 0.5564 -12.46215 11.85065 8.69175
240 80 1 0.5564 -12.4926773015 12.7785226985 8.69175
241 81 2 -1.1128 -13.42055 11.85065 11.85065
242 81 1 0.5564 -12.46215 11.85065 11.85065
243 81 1 0.5564 -12.4926773015 12.7785226985 11.85065
244 82 2 -1.1128 -10.26165 -13.42055 -13.42055
245 82 1 0.5564 -9.30325 -13.42055 -13.42055
246 82 1 0.5564 -9.33377730146 -12.4926773015 -13.42055
247 83 2 -1.1128 -10.26165 -13.42055 -10.26165
248 83 1 0.5564 -9.30325 -13.42055 -10.26165
249 83 1 0.5564 -9.33377730146 -12.4926773015 -10.26165
250 84 2 -1.1128 -10.26165 -13.42055 -7.10275
251 84 1 0.5564 -9.30325 -13.42055 -7.10275
252 84 1 0.5564 -9.33377730146 -12.4926773015 -7.10275
253 85 2 -1.1128 -10.26165 -13.42055 -3.94385
254 85 1 0.5564 -9.30325 -13.42055 -3.94385
255 85 1 0.5564 -9.33377730146 -12.4926773015 -3.94385
256 86 2 -1.1128 -10.26165 -13.42055 -0.78495
257 86 1 0.5564 -9.30325 -13.42055 -0.78495
258 86 1 0.5564 -9.33377730146 -12.4926773015 -0.78495
259 87 2 -1.1128 -10.26165 -13.42055 2.37395
260 87 1 0.5564 -9.30325 -13.42055 2.37395
261 87 1 0.5564 -9.33377730146 -12.4926773015 2.37395
262 88 2 -1.1128 -10.26165 -13.42055 5.53285
263 88 1 0.5564 -9.30325 -13.42055 5.53285
264 88 1 0.5564 -9.33377730146 -12.4926773015 5.53285
265 89 2 -1.1128 -10.26165 -13.42055 8.69175
266 89 1 0.5564 -9.30325 -13.42055 8.69175
267 89 1 0.5564 -9.33377730146 -12.4926773015 8.69175
268 90 2 -1.1128 -10.26165 -13.42055 11.85065
269 90 1 0.5564 -9.30325 -13.42055 11.85065
270 90 1 0.5564 -9.33377730146 -12.4926773015 11.85065
271 91 2 -1.1128 -10.26165 -10.26165 -13.42055
272 91 1 0.5564 -9.30325 -10.26165 -13.42055
273 91 1 0.5564 -9.33377730146 -9.33377730146 -13.42055
274 92 2 -1.1128 -10.26165 -10.26165 -10.26165
275 92 1 0.5564 -9.30325 -10.26165 -10.26165
276 92 1 0.5564 -9.33377730146 -9.33377730146 -10.26165
277 93 2 -1.1128 -10.26165 -10.26165 -7.10275
278 93 1 0.5564 -9.30325 -10.26165 -7.10275
279 93 1 0.5564 -9.33377730146 -9.33377730146 -7.10275
280 94 2 -1.1128 -10.26165 -10.26165 -3.94385
281 94 1 0.5564 -9.30325 -10.26165 -3.94385
282 94 1 0.5564 -9.33377730146 -9.33377730146 -3.94385
283 95 2 -1.1128 -10.26165 -10.26165 -0.78495
284 95 1 0.5564 -9.30325 -10.26165 -0.78495
285 95 1 0.5564 -9.33377730146 -9.33377730146 -0.78495
286 96 2 -1.1128 -10.26165 -10.26165 2.37395
287 96 1 0.5564 -9.30325 -10.26165 2.37395
288 96 1 0.5564 -9.33377730146 -9.33377730146 2.37395
289 97 2 -1.1128 -10.26165 -10.26165 5.53285
290 97 1 0.5564 -9.30325 -10.26165 5.53285
291 97 1 0.5564 -9.33377730146 -9.33377730146 5.53285
292 98 2 -1.1128 -10.26165 -10.26165 8.69175
293 98 1 0.5564 -9.30325 -10.26165 8.69175
294 98 1 0.5564 -9.33377730146 -9.33377730146 8.69175
295 99 2 -1.1128 -10.26165 -10.26165 11.85065
296 99 1 0.5564 -9.30325 -10.26165 11.85065
297 99 1 0.5564 -9.33377730146 -9.33377730146 11.85065
298 100 2 -1.1128 -10.26165 -7.10275 -13.42055
299 100 1 0.5564 -9.30325 -7.10275 -13.42055
300 100 1 0.5564 -9.33377730146 -6.17487730146 -13.42055
301 101 2 -1.1128 -10.26165 -7.10275 -10.26165
302 101 1 0.5564 -9.30325 -7.10275 -10.26165
303 101 1 0.5564 -9.33377730146 -6.17487730146 -10.26165
304 102 2 -1.1128 -10.26165 -7.10275 -7.10275
305 102 1 0.5564 -9.30325 -7.10275 -7.10275
306 102 1 0.5564 -9.33377730146 -6.17487730146 -7.10275
307 103 2 -1.1128 -10.26165 -7.10275 -3.94385
308 103 1 0.5564 -9.30325 -7.10275 -3.94385
309 103 1 0.5564 -9.33377730146 -6.17487730146 -3.94385
310 104 2 -1.1128 -10.26165 -7.10275 -0.78495
311 104 1 0.5564 -9.30325 -7.10275 -0.78495
312 104 1 0.5564 -9.33377730146 -6.17487730146 -0.78495
313 105 2 -1.1128 -10.26165 -7.10275 2.37395
314 105 1 0.5564 -9.30325 -7.10275 2.37395
315 105 1 0.5564 -9.33377730146 -6.17487730146 2.37395
316 106 2 -1.1128 -10.26165 -7.10275 5.53285
317 106 1 0.5564 -9.30325 -7.10275 5.53285
318 106 1 0.5564 -9.33377730146 -6.17487730146 5.53285
319 107 2 -1.1128 -10.26165 -7.10275 8.69175
320 107 1 0.5564 -9.30325 -7.10275 8.69175
321 107 1 0.5564 -9.33377730146 -6.17487730146 8.69175
322 108 2 -1.1128 -10.26165 -7.10275 11.85065
323 108 1 0.5564 -9.30325 -7.10275 11.85065
324 108 1 0.5564 -9.33377730146 -6.17487730146 11.85065
325 109 2 -1.1128 -10.26165 -3.94385 -13.42055
326 109 1 0.5564 -9.30325 -3.94385 -13.42055
327 109 1 0.5564 -9.33377730146 -3.01597730146 -13.42055
328 110 2 -1.1128 -10.26165 -3.94385 -10.26165
329 110 1 0.5564 -9.30325 -3.94385 -10.26165
330 110 1 0.5564 -9.33377730146 -3.01597730146 -10.26165
331 111 2 -1.1128 -10.26165 -3.94385 -7.10275
332 111 1 0.5564 -9.30325 -3.94385 -7.10275
333 111 1 0.5564 -9.33377730146 -3.01597730146 -7.10275
334 112 2 -1.1128 -10.26165 -3.94385 -3.94385
335 112 1 0.5564 -9.30325 -3.94385 -3.94385
336 112 1 0.5564 -9.33377730146 -3.01597730146 -3.94385
337 113 2 -1.1128 -10.26165 -3.94385 -0.78495
338 113 1 0.5564 -9.30325 -3.94385 -0.78495
339 113 1 0.5564 -9.33377730146 -3.01597730146 -0.78495
340 114 2 -1.1128 -10.26165 -3.94385 2.37395
341 114 1 0.5564 -9.30325 -3.94385 2.37395
342 114 1 0.5564 -9.33377730146 -3.01597730146 2.37395
343 115 2 -1.1128 -10.26165 -3.94385 5.53285
344 115 1 0.5564 -9.30325 -3.94385 5.53285
345 115 1 0.5564 -9.33377730146 -3.01597730146 5.53285
346 116 2 -1.1128 -10.26165 -3.94385 8.69175
347 116 1 0.5564 -9.30325 -3.94385 8.69175
348 116 1 0.5564 -9.33377730146 -3.01597730146 8.69175
349 117 2 -1.1128 -10.26165 -3.94385 11.85065
350 117 1 0.5564 -9.30325 -3.94385 11.85065
351 117 1 0.5564 -9.33377730146 -3.01597730146 11.85065
352 118 2 -1.1128 -10.26165 -0.78495 -13.42055
353 118 1 0.5564 -9.30325 -0.78495 -13.42055
354 118 1 0.5564 -9.33377730146 0.142922698538 -13.42055
355 119 2 -1.1128 -10.26165 -0.78495 -10.26165
356 119 1 0.5564 -9.30325 -0.78495 -10.26165
357 119 1 0.5564 -9.33377730146 0.142922698538 -10.26165
358 120 2 -1.1128 -10.26165 -0.78495 -7.10275
359 120 1 0.5564 -9.30325 -0.78495 -7.10275
360 120 1 0.5564 -9.33377730146 0.142922698538 -7.10275
361 121 2 -1.1128 -10.26165 -0.78495 -3.94385
362 121 1 0.5564 -9.30325 -0.78495 -3.94385
363 121 1 0.5564 -9.33377730146 0.142922698538 -3.94385
364 122 2 -1.1128 -10.26165 -0.78495 -0.78495
365 122 1 0.5564 -9.30325 -0.78495 -0.78495
366 122 1 0.5564 -9.33377730146 0.142922698538 -0.78495
367 123 2 -1.1128 -10.26165 -0.78495 2.37395
368 123 1 0.5564 -9.30325 -0.78495 2.37395
369 123 1 0.5564 -9.33377730146 0.142922698538 2.37395
370 124 2 -1.1128 -10.26165 -0.78495 5.53285
371 124 1 0.5564 -9.30325 -0.78495 5.53285
372 124 1 0.5564 -9.33377730146 0.142922698538 5.53285
373 125 2 -1.1128 -10.26165 -0.78495 8.69175
374 125 1 0.5564 -9.30325 -0.78495 8.69175
375 125 1 0.5564 -9.33377730146 0.142922698538 8.69175
376 126 2 -1.1128 -10.26165 -0.78495 11.85065
377 126 1 0.5564 -9.30325 -0.78495 11.85065
378 126 1 0.5564 -9.33377730146 0.142922698538 11.85065
379 127 2 -1.1128 -10.26165 2.37395 -13.42055
380 127 1 0.5564 -9.30325 2.37395 -13.42055
381 127 1 0.5564 -9.33377730146 3.30182269854 -13.42055
382 128 2 -1.1128 -10.26165 2.37395 -10.26165
383 128 1 0.5564 -9.30325 2.37395 -10.26165
384 128 1 0.5564 -9.33377730146 3.30182269854 -10.26165
385 129 2 -1.1128 -10.26165 2.37395 -7.10275
386 129 1 0.5564 -9.30325 2.37395 -7.10275
387 129 1 0.5564 -9.33377730146 3.30182269854 -7.10275
388 130 2 -1.1128 -10.26165 2.37395 -3.94385
389 130 1 0.5564 -9.30325 2.37395 -3.94385
390 130 1 0.5564 -9.33377730146 3.30182269854 -3.94385
391 131 2 -1.1128 -10.26165 2.37395 -0.78495
392 131 1 0.5564 -9.30325 2.37395 -0.78495
393 131 1 0.5564 -9.33377730146 3.30182269854 -0.78495
394 132 2 -1.1128 -10.26165 2.37395 2.37395
395 132 1 0.5564 -9.30325 2.37395 2.37395
396 132 1 0.5564 -9.33377730146 3.30182269854 2.37395
397 133 2 -1.1128 -10.26165 2.37395 5.53285
398 133 1 0.5564 -9.30325 2.37395 5.53285
399 133 1 0.5564 -9.33377730146 3.30182269854 5.53285
400 134 2 -1.1128 -10.26165 2.37395 8.69175
401 134 1 0.5564 -9.30325 2.37395 8.69175
402 134 1 0.5564 -9.33377730146 3.30182269854 8.69175
403 135 2 -1.1128 -10.26165 2.37395 11.85065
404 135 1 0.5564 -9.30325 2.37395 11.85065
405 135 1 0.5564 -9.33377730146 3.30182269854 11.85065
406 136 2 -1.1128 -10.26165 5.53285 -13.42055
407 136 1 0.5564 -9.30325 5.53285 -13.42055
408 136 1 0.5564 -9.33377730146 6.46072269854 -13.42055
409 137 2 -1.1128 -10.26165 5.53285 -10.26165
410 137 1 0.5564 -9.30325 5.53285 -10.26165
411 137 1 0.5564 -9.33377730146 6.46072269854 -10.26165
412 138 2 -1.1128 -10.26165 5.53285 -7.10275
413 138 1 0.5564 -9.30325 5.53285 -7.10275
414 138 1 0.5564 -9.33377730146 6.46072269854 -7.10275
415 139 2 -1.1128 -10.26165 5.53285 -3.94385
416 139 1 0.5564 -9.30325 5.53285 -3.94385
417 139 1 0.5564 -9.33377730146 6.46072269854 -3.94385
418 140 2 -1.1128 -10.26165 5.53285 -0.78495
419 140 1 0.5564 -9.30325 5.53285 -0.78495
420 140 1 0.5564 -9.33377730146 6.46072269854 -0.78495
421 141 2 -1.1128 -10.26165 5.53285 2.37395
422 141 1 0.5564 -9.30325 5.53285 2.37395
423 141 1 0.5564 -9.33377730146 6.46072269854 2.37395
424 142 2 -1.1128 -10.26165 5.53285 5.53285
425 142 1 0.5564 -9.30325 5.53285 5.53285
426 142 1 0.5564 -9.33377730146 6.46072269854 5.53285
427 143 2 -1.1128 -10.26165 5.53285 8.69175
428 143 1 0.5564 -9.30325 5.53285 8.69175
429 143 1 0.5564 -9.33377730146 6.46072269854 8.69175
430 144 2 -1.1128 -10.26165 5.53285 11.85065
431 144 1 0.5564 -9.30325 5.53285 11.85065
432 144 1 0.5564 -9.33377730146 6.46072269854 11.85065
433 145 2 -1.1128 -10.26165 8.69175 -13.42055
434 145 1 0.5564 -9.30325 8.69175 -13.42055
435 145 1 0.5564 -9.33377730146 9.61962269854 -13.42055
436 146 2 -1.1128 -10.26165 8.69175 -10.26165
437 146 1 0.5564 -9.30325 8.69175 -10.26165
438 146 1 0.5564 -9.33377730146 9.61962269854 -10.26165
439 147 2 -1.1128 -10.26165 8.69175 -7.10275
440 147 1 0.5564 -9.30325 8.69175 -7.10275
441 147 1 0.5564 -9.33377730146 9.61962269854 -7.10275
442 148 2 -1.1128 -10.26165 8.69175 -3.94385
443 148 1 0.5564 -9.30325 8.69175 -3.94385
444 148 1 0.5564 -9.33377730146 9.61962269854 -3.94385
445 149 2 -1.1128 -10.26165 8.69175 -0.78495
446 149 1 0.5564 -9.30325 8.69175 -0.78495
447 149 1 0.5564 -9.33377730146 9.61962269854 -0.78495
448 150 2 -1.1128 -10.26165 8.69175 2.37395
449 150 1 0.5564 -9.30325 8.69175 2.37395
450 150 1 0.5564 -9.33377730146 9.61962269854 2.37395
451 151 2 -1.1128 -10.26165 8.69175 5.53285
452 151 1 0.5564 -9.30325 8.69175 5.53285
453 151 1 0.5564 -9.33377730146 9.61962269854 5.53285
454 152 2 -1.1128 -10.26165 8.69175 8.69175
455 152 1 0.5564 -9.30325 8.69175 8.69175
456 152 1 0.5564 -9.33377730146 9.61962269854 8.69175
457 153 2 -1.1128 -10.26165 8.69175 11.85065
458 153 1 0.5564 -9.30325 8.69175 11.85065
459 153 1 0.5564 -9.33377730146 9.61962269854 11.85065
460 154 2 -1.1128 -10.26165 11.85065 -13.42055
461 154 1 0.5564 -9.30325 11.85065 -13.42055
462 154 1 0.5564 -9.33377730146 12.7785226985 -13.42055
463 155 2 -1.1128 -10.26165 11.85065 -10.26165
464 155 1 0.5564 -9.30325 11.85065 -10.26165
465 155 1 0.5564 -9.33377730146 12.7785226985 -10.26165
466 156 2 -1.1128 -10.26165 11.85065 -7.10275
467 156 1 0.5564 -9.30325 11.85065 -7.10275
468 156 1 0.5564 -9.33377730146 12.7785226985 -7.10275
469 157 2 -1.1128 -10.26165 11.85065 -3.94385
470 157 1 0.5564 -9.30325 11.85065 -3.94385
471 157 1 0.5564 -9.33377730146 12.7785226985 -3.94385
472 158 2 -1.1128 -10.26165 11.85065 -0.78495
473 158 1 0.5564 -9.30325 11.85065 -0.78495
474 158 1 0.5564 -9.33377730146 12.7785226985 -0.78495
475 159 2 -1.1128 -10.26165 11.85065 2.37395
476 159 1 0.5564 -9.30325 11.85065 2.37395
477 159 1 0.5564 -9.33377730146 12.7785226985 2.37395
478 160 2 -1.1128 -10.26165 11.85065 5.53285
479 160 1 0.5564 -9.30325 11.85065 5.53285
480 160 1 0.5564 -9.33377730146 12.7785226985 5.53285
481 161 2 -1.1128 -10.26165 11.85065 8.69175
482 161 1 0.5564 -9.30325 11.85065 8.69175
483 161 1 0.5564 -9.33377730146 12.7785226985 8.69175
484 162 2 -1.1128 -10.26165 11.85065 11.85065
485 162 1 0.5564 -9.30325 11.85065 11.85065
486 162 1 0.5564 -9.33377730146 12.7785226985 11.85065
487 163 2 -1.1128 -7.10275 -13.42055 -13.42055
488 163 1 0.5564 -6.14435 -13.42055 -13.42055
489 163 1 0.5564 -6.17487730146 -12.4926773015 -13.42055
490 164 2 -1.1128 -7.10275 -13.42055 -10.26165
491 164 1 0.5564 -6.14435 -13.42055 -10.26165
492 164 1 0.5564 -6.17487730146 -12.4926773015 -10.26165
493 165 2 -1.1128 -7.10275 -13.42055 -7.10275
494 165 1 0.5564 -6.14435 -13.42055 -7.10275
495 165 1 0.5564 -6.17487730146 -12.4926773015 -7.10275
496 166 2 -1.1128 -7.10275 -13.42055 -3.94385
497 166 1 0.5564 -6.14435 -13.42055 -3.94385
498 166 1 0.5564 -6.17487730146 -12.4926773015 -3.94385
499 167 2 -1.1128 -7.10275 -13.42055 -0.78495
500 167 1 0.5564 -6.14435 -13.42055 -0.78495
501 167 1 0.5564 -6.17487730146 -12.4926773015 -0.78495
502 168 2 -1.1128 -7.10275 -13.42055 2.37395
503 168 1 0.5564 -6.14435 -13.42055 2.37395
504 168 1 0.5564 -6.17487730146 -12.4926773015 2.37395
505 169 2 -1.1128 -7.10275 -13.42055 5.53285
506 169 1 0.5564 -6.14435 -13.42055 5.53285
507 169 1 0.5564 -6.17487730146 -12.4926773015 5.53285
508 170 2 -1.1128 -7.10275 -13.42055 8.69175
509 170 1 0.5564 -6.14435 -13.42055 8.69175
510 170 1 0.5564 -6.17487730146 -12.4926773015 8.69175
511 171 2 -1.1128 -7.10275 -13.42055 11.85065
512 171 1 0.5564 -6.14435 -13.42055 11.85065
513 171 1 0.5564 -6.17487730146 -12.4926773015 11.85065
514 172 2 -1.1128 -7.10275 -10.26165 -13.42055
515 172 1 0.5564 -6.14435 -10.26165 -13.42055
516 172 1 0.5564 -6.17487730146 -9.33377730146 -13.42055
517 173 2 -1.1128 -7.10275 -10.26165 -10.26165
518 173 1 0.5564 -6.14435 -10.26165 -10.26165
519 173 1 0.5564 -6.17487730146 -9.33377730146 -10.26165
520 174 2 -1.1128 -7.10275 -10.26165 -7.10275
521 174 1 0.5564 -6.14435 -10.26165 -7.10275
522 174 1 0.5564 -6.17487730146 -9.33377730146 -7.10275
523 175 2 -1.1128 -7.10275 -10.26165 -3.94385
524 175 1 0.5564 -6.14435 -10.26165 -3.94385
525 175 1 0.5564 -6.17487730146 -9.33377730146 -3.94385
526 176 2 -1.1128 -7.10275 -10.26165 -0.78495
527 176 1 0.5564 -6.14435 -10.26165 -0.78495
528 176 1 0.5564 -6.17487730146 -9.33377730146 -0.78495
529 177 2 -1.1128 -7.10275 -10.26165 2.37395
530 177 1 0.5564 -6.14435 -10.26165 2.37395
531 177 1 0.5564 -6.17487730146 -9.33377730146 2.37395
532 178 2 -1.1128 -7.10275 -10.26165 5.53285
533 178 1 0.5564 -6.14435 -10.26165 5.53285
534 178 1 0.5564 -6.17487730146 -9.33377730146 5.53285
535 179 2 -1.1128 -7.10275 -10.26165 8.69175
536 179 1 0.5564 -6.14435 -10.26165 8.69175
537 179 1 0.5564 -6.17487730146 -9.33377730146 8.69175
538 180 2 -1.1128 -7.10275 -10.26165 11.85065
539 180 1 0.5564 -6.14435 -10.26165 11.85065
540 180 1 0.5564 -6.17487730146 -9.33377730146 11.85065
541 181 2 -1.1128 -7.10275 -7.10275 -13.42055
542 181 1 0.5564 -6.14435 -7.10275 -13.42055
543 181 1 0.5564 -6.17487730146 -6.17487730146 -13.42055
544 182 2 -1.1128 -7.10275 -7.10275 -10.26165
545 182 1 0.5564 -6.14435 -7.10275 -10.26165
546 182 1 0.5564 -6.17487730146 -6.17487730146 -10.26165
547 183 2 -1.1128 -7.10275 -7.10275 -7.10275
548 183 1 0.5564 -6.14435 -7.10275 -7.10275
549 183 1 0.5564 -6.17487730146 -6.17487730146 -7.10275
550 184 2 -1.1128 -7.10275 -7.10275 -3.94385
551 184 1 0.5564 -6.14435 -7.10275 -3.94385
552 184 1 0.5564 -6.17487730146 -6.17487730146 -3.94385
553 185 2 -1.1128 -7.10275 -7.10275 -0.78495
554 185 1 0.5564 -6.14435 -7.10275 -0.78495
555 185 1 0.5564 -6.17487730146 -6.17487730146 -0.78495
556 186 2 -1.1128 -7.10275 -7.10275 2.37395
557 186 1 0.5564 -6.14435 -7.10275 2.37395
558 186 1 0.5564 -6.17487730146 -6.17487730146 2.37395
559 187 2 -1.1128 -7.10275 -7.10275 5.53285
560 187 1 0.5564 -6.14435 -7.10275 5.53285
561 187 1 0.5564 -6.17487730146 -6.17487730146 5.53285
562 188 2 -1.1128 -7.10275 -7.10275 8.69175
563 188 1 0.5564 -6.14435 -7.10275 8.69175
564 188 1 0.5564 -6.17487730146 -6.17487730146 8.69175
565 189 2 -1.1128 -7.10275 -7.10275 11.85065
566 189 1 0.5564 -6.14435 -7.10275 11.85065
567 189 1 0.5564 -6.17487730146 -6.17487730146 11.85065
568 190 2 -1.1128 -7.10275 -3.94385 -13.42055
569 190 1 0.5564 -6.14435 -3.94385 -13.42055
570 190 1 0.5564 -6.17487730146 -3.01597730146 -13.42055
571 191 2 -1.1128 -7.10275 -3.94385 -10.26165
572 191 1 0.5564 -6.14435 -3.94385 -10.26165
573 191 1 0.5564 -6.17487730146 -3.01597730146 -10.26165
574 192 2 -1.1128 -7.10275 -3.94385 -7.10275
575 192 1 0.5564 -6.14435 -3.94385 -7.10275
576 192 1 0.5564 -6.17487730146 -3.01597730146 -7.10275
577 193 2 -1.1128 -7.10275 -3.94385 -3.94385
578 193 1 0.5564 -6.14435 -3.94385 -3.94385
579 193 1 0.5564 -6.17487730146 -3.01597730146 -3.94385
580 194 2 -1.1128 -7.10275 -3.94385 -0.78495
581 194 1 0.5564 -6.14435 -3.94385 -0.78495
582 194 1 0.5564 -6.17487730146 -3.01597730146 -0.78495
583 195 2 -1.1128 -7.10275 -3.94385 2.37395
584 195 1 0.5564 -6.14435 -3.94385 2.37395
585 195 1 0.5564 -6.17487730146 -3.01597730146 2.37395
586 196 2 -1.1128 -7.10275 -3.94385 5.53285
587 196 1 0.5564 -6.14435 -3.94385 5.53285
588 196 1 0.5564 -6.17487730146 -3.01597730146 5.53285
589 197 2 -1.1128 -7.10275 -3.94385 8.69175
590 197 1 0.5564 -6.14435 -3.94385 8.69175
591 197 1 0.5564 -6.17487730146 -3.01597730146 8.69175
592 198 2 -1.1128 -7.10275 -3.94385 11.85065
593 198 1 0.5564 -6.14435 -3.94385 11.85065
594 198 1 0.5564 -6.17487730146 -3.01597730146 11.85065
595 199 2 -1.1128 -7.10275 -0.78495 -13.42055
596 199 1 0.5564 -6.14435 -0.78495 -13.42055
597 199 1 0.5564 -6.17487730146 0.142922698538 -13.42055
598 200 2 -1.1128 -7.10275 -0.78495 -10.26165
599 200 1 0.5564 -6.14435 -0.78495 -10.26165
600 200 1 0.5564 -6.17487730146 0.142922698538 -10.26165
601 201 2 -1.1128 -7.10275 -0.78495 -7.10275
602 201 1 0.5564 -6.14435 -0.78495 -7.10275
603 201 1 0.5564 -6.17487730146 0.142922698538 -7.10275
604 202 2 -1.1128 -7.10275 -0.78495 -3.94385
605 202 1 0.5564 -6.14435 -0.78495 -3.94385
606 202 1 0.5564 -6.17487730146 0.142922698538 -3.94385
607 203 2 -1.1128 -7.10275 -0.78495 -0.78495
608 203 1 0.5564 -6.14435 -0.78495 -0.78495
609 203 1 0.5564 -6.17487730146 0.142922698538 -0.78495
610 204 2 -1.1128 -7.10275 -0.78495 2.37395
611 204 1 0.5564 -6.14435 -0.78495 2.37395
612 204 1 0.5564 -6.17487730146 0.142922698538 2.37395
613 205 2 -1.1128 -7.10275 -0.78495 5.53285
614 205 1 0.5564 -6.14435 -0.78495 5.53285
615 205 1 0.5564 -6.17487730146 0.142922698538 5.53285
616 206 2 -1.1128 -7.10275 -0.78495 8.69175
617 206 1 0.5564 -6.14435 -0.78495 8.69175
618 206 1 0.5564 -6.17487730146 0.142922698538 8.69175
619 207 2 -1.1128 -7.10275 -0.78495 11.85065
620 207 1 0.5564 -6.14435 -0.78495 11.85065
621 207 1 0.5564 -6.17487730146 0.142922698538 11.85065
622 208 2 -1.1128 -7.10275 2.37395 -13.42055
623 208 1 0.5564 -6.14435 2.37395 -13.42055