LAMMPS data file via write_data, version 20 Nov 2019, timestep = 2000

7751 atoms
6 atom types
2754 bonds
1 bond types
1377 angles
1 angle types

-1.7849999999999998e+01 1.7849999999999998e+01 xlo xhi
-1.7849999999999998e+01 1.7849999999999998e+01 ylo yhi
-4.6409999999999997e+01 4.6409999999999997e+01 zlo zhi

Masses

1 15.9994
2 1.008
3 28.99
4 35.453
5 12.011
6 12.011

Pair Coeffs # lj/cut/tip4p/long

1 0.185199 3.1589
2 0 0
3 0.0469 2.4299
4 0.15 4.0447
5 0.07 3.55
6 0.07 3.55

Bond Coeffs # harmonic

1 0 0.9572

Angle Coeffs # harmonic

1 0 104.52

Atoms # full

1801 0 6 0.0000000000000000e+00 -1.7849999999999998e+01 -1.7849999999999998e+01 -2.5279194563557912e+01 0 0 0
1804 0 6 0.0000000000000000e+00 -1.6064999999999998e+01 -1.6064999999999998e+01 -2.5279194563557912e+01 0 0 0
1809 0 6 0.0000000000000000e+00 -1.4279999999999999e+01 -1.7849999999999998e+01 -2.5279194563557912e+01 0 0 0
1812 0 6 0.0000000000000000e+00 -1.2494999999999999e+01 -1.6064999999999998e+01 -2.5279194563557912e+01 0 0 0
1817 0 6 0.0000000000000000e+00 -1.0709999999999999e+01 -1.7849999999999998e+01 -2.5279194563557912e+01 0 0 0
1881 0 6 0.0000000000000000e+00 -1.7849999999999998e+01 -1.4279999999999999e+01 -2.5279194563557912e+01 0 0 0
1884 0 6 0.0000000000000000e+00 -1.6064999999999998e+01 -1.2494999999999999e+01 -2.5279194563557912e+01 0 0 0
1889 0 6 0.0000000000000000e+00 -1.4279999999999999e+01 -1.4279999999999999e+01 -2.5279194563557912e+01 0 0 0
1892 0 6 0.0000000000000000e+00 -1.2494999999999999e+01 -1.2494999999999999e+01 -2.5279194563557912e+01 0 0 0
1897 0 6 0.0000000000000000e+00 -1.0709999999999999e+01 -1.4279999999999999e+01 -2.5279194563557912e+01 0 0 0
1961 0 6 0.0000000000000000e+00 -1.7849999999999998e+01 -1.0709999999999999e+01 -2.5279194563557912e+01 0 0 0
1969 0 6 0.0000000000000000e+00 -1.4279999999999999e+01 -1.0709999999999999e+01 -2.5279194563557912e+01 0 0 0
1977 0 6 0.0000000000000000e+00 -1.0709999999999999e+01 -1.0709999999999999e+01 -2.5279194563557912e+01 0 0 0
1805 0 6 0.0000000000000000e+00 -1.6957500000000000e+01 -1.6957500000000000e+01 -2.4386694563557857e+01 0 0 0
1808 0 6 0.0000000000000000e+00 -1.5172499999999999e+01 -1.5172499999999999e+01 -2.4386694563557857e+01 0 0 0
1813 0 6 0.0000000000000000e+00 -1.3387499999999999e+01 -1.6957500000000000e+01 -2.4386694563557857e+01 0 0 0
1816 0 6 0.0000000000000000e+00 -1.1602499999999999e+01 -1.5172499999999999e+01 -2.4386694563557857e+01 0 0 0
1821 0 6 0.0000000000000000e+00 -9.8174999999999990e+00 -1.6957500000000000e+01 -2.4386694563557857e+01 0 0 0
1885 0 6 0.0000000000000000e+00 -1.6957500000000000e+01 -1.3387499999999999e+01 -2.4386694563557857e+01 0 0 0
1888 0 6 0.0000000000000000e+00 -1.5172499999999999e+01 -1.1602499999999999e+01 -2.4386694563557857e+01 0 0 0
1893 0 6 0.0000000000000000e+00 -1.3387499999999999e+01 -1.3387499999999999e+01 -2.4386694563557857e+01 0 0 0
1896 0 6 0.0000000000000000e+00 -1.1602499999999999e+01 -1.1602499999999999e+01 -2.4386694563557857e+01 0 0 0
1901 0 6 0.0000000000000000e+00 -9.8174999999999990e+00 -1.3387499999999999e+01 -2.4386694563557857e+01 0 0 0
1965 0 6 0.0000000000000000e+00 -1.6957500000000000e+01 -9.8174999999999990e+00 -2.4386694563557857e+01 0 0 0
1973 0 6 0.0000000000000000e+00 -1.3387499999999999e+01 -9.8174999999999990e+00 -2.4386694563557857e+01 0 0 0
1981 0 6 0.0000000000000000e+00 -9.8174999999999990e+00 -9.8174999999999990e+00 -2.4386694563557857e+01 0 0 0
1971 0 6 0.0000000000000000e+00 -1.2494999999999999e+01 -1.0709999999999999e+01 -2.3494194563557894e+01 0 0 0
1963 0 6 0.0000000000000000e+00 -1.6064999999999998e+01 -1.0709999999999999e+01 -2.3494194563557894e+01 0 0 0
1898 0 6 0.0000000000000000e+00 -1.0709999999999999e+01 -1.2494999999999999e+01 -2.3494194563557894e+01 0 0 0
1891 0 6 0.0000000000000000e+00 -1.2494999999999999e+01 -1.4279999999999999e+01 -2.3494194563557894e+01 0 0 0
1890 0 6 0.0000000000000000e+00 -1.4279999999999999e+01 -1.2494999999999999e+01 -2.3494194563557894e+01 0 0 0
1883 0 6 0.0000000000000000e+00 -1.6064999999999998e+01 -1.4279999999999999e+01 -2.3494194563557894e+01 0 0 0
1882 0 6 0.0000000000000000e+00 -1.7849999999999998e+01 -1.2494999999999999e+01 -2.3494194563557894e+01 0 0 0
1818 0 6 0.0000000000000000e+00 -1.0709999999999999e+01 -1.6064999999999998e+01 -2.3494194563557894e+01 0 0 0
1811 0 6 0.0000000000000000e+00 -1.2494999999999999e+01 -1.7849999999999998e+01 -2.3494194563557894e+01 0 0 0
1810 0 6 0.0000000000000000e+00 -1.4279999999999999e+01 -1.6064999999999998e+01 -2.3494194563557894e+01 0 0 0
1803 0 6 0.0000000000000000e+00 -1.6064999999999998e+01 -1.7849999999999998e+01 -2.3494194563557894e+01 0 0 0
1802 0 6 0.0000000000000000e+00 -1.7849999999999998e+01 -1.6064999999999998e+01 -2.3494194563557894e+01 0 0 0
1820 0 6 0.0000000000000000e+00 -8.9249999999999989e+00 -1.6064999999999998e+01 -2.5279194563557912e+01 0 0 0
1825 0 6 0.0000000000000000e+00 -7.1399999999999997e+00 -1.7849999999999998e+01 -2.5279194563557912e+01 0 0 0
1828 0 6 0.0000000000000000e+00 -5.3549999999999995e+00 -1.6064999999999998e+01 -2.5279194563557912e+01 0 0 0
1833 0 6 0.0000000000000000e+00 -3.5699999999999998e+00 -1.7849999999999998e+01 -2.5279194563557912e+01 0 0 0
1836 0 6 0.0000000000000000e+00 -1.7849999999999999e+00 -1.6064999999999998e+01 -2.5279194563557912e+01 0 0 0
1900 0 6 0.0000000000000000e+00 -8.9249999999999989e+00 -1.2494999999999999e+01 -2.5279194563557912e+01 0 0 0
1905 0 6 0.0000000000000000e+00 -7.1399999999999997e+00 -1.4279999999999999e+01 -2.5279194563557912e+01 0 0 0
1908 0 6 0.0000000000000000e+00 -5.3549999999999995e+00 -1.2494999999999999e+01 -2.5279194563557912e+01 0 0 0
1913 0 6 0.0000000000000000e+00 -3.5699999999999998e+00 -1.4279999999999999e+01 -2.5279194563557912e+01 0 0 0
1916 0 6 0.0000000000000000e+00 -1.7849999999999999e+00 -1.2494999999999999e+01 -2.5279194563557912e+01 0 0 0
1985 0 6 0.0000000000000000e+00 -7.1399999999999997e+00 -1.0709999999999999e+01 -2.5279194563557912e+01 0 0 0
1993 0 6 0.0000000000000000e+00 -3.5699999999999998e+00 -1.0709999999999999e+01 -2.5279194563557912e+01 0 0 0
1824 0 6 0.0000000000000000e+00 -8.0324999999999989e+00 -1.5172499999999999e+01 -2.4386694563557857e+01 0 0 0
1829 0 6 0.0000000000000000e+00 -6.2474999999999996e+00 -1.6957500000000000e+01 -2.4386694563557857e+01 0 0 0
1832 0 6 0.0000000000000000e+00 -4.4624999999999995e+00 -1.5172499999999999e+01 -2.4386694563557857e+01 0 0 0
1837 0 6 0.0000000000000000e+00 -2.6774999999999998e+00 -1.6957500000000000e+01 -2.4386694563557857e+01 0 0 0
1840 0 6 0.0000000000000000e+00 -8.9249999999999996e-01 -1.5172499999999999e+01 -2.4386694563557857e+01 0 0 0
1904 0 6 0.0000000000000000e+00 -8.0324999999999989e+00 -1.1602499999999999e+01 -2.4386694563557857e+01 0 0 0
1909 0 6 0.0000000000000000e+00 -6.2474999999999996e+00 -1.3387499999999999e+01 -2.4386694563557857e+01 0 0 0
1912 0 6 0.0000000000000000e+00 -4.4624999999999995e+00 -1.1602499999999999e+01 -2.4386694563557857e+01 0 0 0
1917 0 6 0.0000000000000000e+00 -2.6774999999999998e+00 -1.3387499999999999e+01 -2.4386694563557857e+01 0 0 0
1920 0 6 0.0000000000000000e+00 -8.9249999999999996e-01 -1.1602499999999999e+01 -2.4386694563557857e+01 0 0 0
1989 0 6 0.0000000000000000e+00 -6.2474999999999996e+00 -9.8174999999999990e+00 -2.4386694563557857e+01 0 0 0
1997 0 6 0.0000000000000000e+00 -2.6774999999999998e+00 -9.8174999999999990e+00 -2.4386694563557857e+01 0 0 0
1995 0 6 0.0000000000000000e+00 -1.7849999999999999e+00 -1.0709999999999999e+01 -2.3494194563557894e+01 0 0 0
1987 0 6 0.0000000000000000e+00 -5.3549999999999995e+00 -1.0709999999999999e+01 -2.3494194563557894e+01 0 0 0
1979 0 6 0.0000000000000000e+00 -8.9249999999999989e+00 -1.0709999999999999e+01 -2.3494194563557894e+01 0 0 0
1915 0 6 0.0000000000000000e+00 -1.7849999999999999e+00 -1.4279999999999999e+01 -2.3494194563557894e+01 0 0 0
1914 0 6 0.0000000000000000e+00 -3.5699999999999998e+00 -1.2494999999999999e+01 -2.3494194563557894e+01 0 0 0
1907 0 6 0.0000000000000000e+00 -5.3549999999999995e+00 -1.4279999999999999e+01 -2.3494194563557894e+01 0 0 0
1906 0 6 0.0000000000000000e+00 -7.1399999999999997e+00 -1.2494999999999999e+01 -2.3494194563557894e+01 0 0 0
1899 0 6 0.0000000000000000e+00 -8.9249999999999989e+00 -1.4279999999999999e+01 -2.3494194563557894e+01 0 0 0
1835 0 6 0.0000000000000000e+00 -1.7849999999999999e+00 -1.7849999999999998e+01 -2.3494194563557894e+01 0 0 0
1834 0 6 0.0000000000000000e+00 -3.5699999999999998e+00 -1.6064999999999998e+01 -2.3494194563557894e+01 0 0 0
1827 0 6 0.0000000000000000e+00 -5.3549999999999995e+00 -1.7849999999999998e+01 -2.3494194563557894e+01 0 0 0
1826 0 6 0.0000000000000000e+00 -7.1399999999999997e+00 -1.6064999999999998e+01 -2.3494194563557894e+01 0 0 0
1819 0 6 0.0000000000000000e+00 -8.9249999999999989e+00 -1.7849999999999998e+01 -2.3494194563557894e+01 0 0 0
1841 0 6 0.0000000000000000e+00 0.0000000000000000e+00 -1.7849999999999998e+01 -2.5279194563557912e+01 0 0 0
1844 0 6 0.0000000000000000e+00 1.7849999999999999e+00 -1.6064999999999998e+01 -2.5279194563557912e+01 0 0 0
1849 0 6 0.0000000000000000e+00 3.5699999999999998e+00 -1.7849999999999998e+01 -2.5279194563557912e+01 0 0 0
1852 0 6 0.0000000000000000e+00 5.3549999999999995e+00 -1.6064999999999998e+01 -2.5279194563557912e+01 0 0 0
1857 0 6 0.0000000000000000e+00 7.1399999999999997e+00 -1.7849999999999998e+01 -2.5279194563557912e+01 0 0 0
1921 0 6 0.0000000000000000e+00 0.0000000000000000e+00 -1.4279999999999999e+01 -2.5279194563557912e+01 0 0 0
1924 0 6 0.0000000000000000e+00 1.7849999999999999e+00 -1.2494999999999999e+01 -2.5279194563557912e+01 0 0 0
1929 0 6 0.0000000000000000e+00 3.5699999999999998e+00 -1.4279999999999999e+01 -2.5279194563557912e+01 0 0 0
1932 0 6 0.0000000000000000e+00 5.3549999999999995e+00 -1.2494999999999999e+01 -2.5279194563557912e+01 0 0 0
1937 0 6 0.0000000000000000e+00 7.1399999999999997e+00 -1.4279999999999999e+01 -2.5279194563557912e+01 0 0 0
2001 0 6 0.0000000000000000e+00 0.0000000000000000e+00 -1.0709999999999999e+01 -2.5279194563557912e+01 0 0 0
2009 0 6 0.0000000000000000e+00 3.5699999999999998e+00 -1.0709999999999999e+01 -2.5279194563557912e+01 0 0 0
2017 0 6 0.0000000000000000e+00 7.1399999999999997e+00 -1.0709999999999999e+01 -2.5279194563557912e+01 0 0 0
1845 0 6 0.0000000000000000e+00 8.9249999999999996e-01 -1.6957500000000000e+01 -2.4386694563557857e+01 0 0 0
1848 0 6 0.0000000000000000e+00 2.6774999999999998e+00 -1.5172499999999999e+01 -2.4386694563557857e+01 0 0 0
1853 0 6 0.0000000000000000e+00 4.4624999999999995e+00 -1.6957500000000000e+01 -2.4386694563557857e+01 0 0 0
1856 0 6 0.0000000000000000e+00 6.2474999999999996e+00 -1.5172499999999999e+01 -2.4386694563557857e+01 0 0 0
1861 0 6 0.0000000000000000e+00 8.0324999999999989e+00 -1.6957500000000000e+01 -2.4386694563557857e+01 0 0 0
1925 0 6 0.0000000000000000e+00 8.9249999999999996e-01 -1.3387499999999999e+01 -2.4386694563557857e+01 0 0 0
1928 0 6 0.0000000000000000e+00 2.6774999999999998e+00 -1.1602499999999999e+01 -2.4386694563557857e+01 0 0 0
1933 0 6 0.0000000000000000e+00 4.4624999999999995e+00 -1.3387499999999999e+01 -2.4386694563557857e+01 0 0 0
1936 0 6 0.0000000000000000e+00 6.2474999999999996e+00 -1.1602499999999999e+01 -2.4386694563557857e+01 0 0 0
1941 0 6 0.0000000000000000e+00 8.0324999999999989e+00 -1.3387499999999999e+01 -2.4386694563557857e+01 0 0 0
2005 0 6 0.0000000000000000e+00 8.9249999999999996e-01 -9.8174999999999990e+00 -2.4386694563557857e+01 0 0 0
2013 0 6 0.0000000000000000e+00 4.4624999999999995e+00 -9.8174999999999990e+00 -2.4386694563557857e+01 0 0 0
2021 0 6 0.0000000000000000e+00 8.0324999999999989e+00 -9.8174999999999990e+00 -2.4386694563557857e+01 0 0 0
2011 0 6 0.0000000000000000e+00 5.3549999999999995e+00 -1.0709999999999999e+01 -2.3494194563557894e+01 0 0 0
2003 0 6 0.0000000000000000e+00 1.7849999999999999e+00 -1.0709999999999999e+01 -2.3494194563557894e+01 0 0 0
1938 0 6 0.0000000000000000e+00 7.1399999999999997e+00 -1.2494999999999999e+01 -2.3494194563557894e+01 0 0 0
1931 0 6 0.0000000000000000e+00 5.3549999999999995e+00 -1.4279999999999999e+01 -2.3494194563557894e+01 0 0 0
1930 0 6 0.0000000000000000e+00 3.5699999999999998e+00 -1.2494999999999999e+01 -2.3494194563557894e+01 0 0 0
1923 0 6 0.0000000000000000e+00 1.7849999999999999e+00 -1.4279999999999999e+01 -2.3494194563557894e+01 0 0 0
1922 0 6 0.0000000000000000e+00 0.0000000000000000e+00 -1.2494999999999999e+01 -2.3494194563557894e+01 0 0 0
1858 0 6 0.0000000000000000e+00 7.1399999999999997e+00 -1.6064999999999998e+01 -2.3494194563557894e+01 0 0 0
1851 0 6 0.0000000000000000e+00 5.3549999999999995e+00 -1.7849999999999998e+01 -2.3494194563557894e+01 0 0 0
1850 0 6 0.0000000000000000e+00 3.5699999999999998e+00 -1.6064999999999998e+01 -2.3494194563557894e+01 0 0 0
1843 0 6 0.0000000000000000e+00 1.7849999999999999e+00 -1.7849999999999998e+01 -2.3494194563557894e+01 0 0 0
1842 0 6 0.0000000000000000e+00 0.0000000000000000e+00 -1.6064999999999998e+01 -2.3494194563557894e+01 0 0 0
1860 0 6 0.0000000000000000e+00 8.9249999999999989e+00 -1.6064999999999998e+01 -2.5279194563557912e+01 0 0 0
1865 0 6 0.0000000000000000e+00 1.0709999999999999e+01 -1.7849999999999998e+01 -2.5279194563557912e+01 0 0 0
1868 0 6 0.0000000000000000e+00 1.2494999999999999e+01 -1.6064999999999998e+01 -2.5279194563557912e+01 0 0 0
1873 0 6 0.0000000000000000e+00 1.4279999999999999e+01 -1.7849999999999998e+01 -2.5279194563557912e+01 0 0 0
1876 0 6 0.0000000000000000e+00 1.6064999999999998e+01 -1.6064999999999998e+01 -2.5279194563557912e+01 0 0 0
1940 0 6 0.0000000000000000e+00 8.9249999999999989e+00 -1.2494999999999999e+01 -2.5279194563557912e+01 0 0 0
1945 0 6 0.0000000000000000e+00 1.0709999999999999e+01 -1.4279999999999999e+01 -2.5279194563557912e+01 0 0 0
1948 0 6 0.0000000000000000e+00 1.2494999999999999e+01 -1.2494999999999999e+01 -2.5279194563557912e+01 0 0 0
1953 0 6 0.0000000000000000e+00 1.4279999999999999e+01 -1.4279999999999999e+01 -2.5279194563557912e+01 0 0 0
1956 0 6 0.0000000000000000e+00 1.6064999999999998e+01 -1.2494999999999999e+01 -2.5279194563557912e+01 0 0 0
2025 0 6 0.0000000000000000e+00 1.0709999999999999e+01 -1.0709999999999999e+01 -2.5279194563557912e+01 0 0 0
2033 0 6 0.0000000000000000e+00 1.4279999999999999e+01 -1.0709999999999999e+01 -2.5279194563557912e+01 0 0 0
1864 0 6 0.0000000000000000e+00 9.8174999999999990e+00 -1.5172499999999999e+01 -2.4386694563557857e+01 0 0 0
1869 0 6 0.0000000000000000e+00 1.1602499999999999e+01 -1.6957500000000000e+01 -2.4386694563557857e+01 0 0 0
1872 0 6 0.0000000000000000e+00 1.3387499999999999e+01 -1.5172499999999999e+01 -2.4386694563557857e+01 0 0 0
1877 0 6 0.0000000000000000e+00 1.5172499999999999e+01 -1.6957500000000000e+01 -2.4386694563557857e+01 0 0 0
1880 0 6 0.0000000000000000e+00 1.6957500000000000e+01 -1.5172499999999999e+01 -2.4386694563557857e+01 0 0 0
1944 0 6 0.0000000000000000e+00 9.8174999999999990e+00 -1.1602499999999999e+01 -2.4386694563557857e+01 0 0 0
1949 0 6 0.0000000000000000e+00 1.1602499999999999e+01 -1.3387499999999999e+01 -2.4386694563557857e+01 0 0 0
1952 0 6 0.0000000000000000e+00 1.3387499999999999e+01 -1.1602499999999999e+01 -2.4386694563557857e+01 0 0 0
1957 0 6 0.0000000000000000e+00 1.5172499999999999e+01 -1.3387499999999999e+01 -2.4386694563557857e+01 0 0 0
1960 0 6 0.0000000000000000e+00 1.6957500000000000e+01 -1.1602499999999999e+01 -2.4386694563557857e+01 0 0 0
2029 0 6 0.0000000000000000e+00 1.1602499999999999e+01 -9.8174999999999990e+00 -2.4386694563557857e+01 0 0 0
2037 0 6 0.0000000000000000e+00 1.5172499999999999e+01 -9.8174999999999990e+00 -2.4386694563557857e+01 0 0 0
2035 0 6 0.0000000000000000e+00 1.6064999999999998e+01 -1.0709999999999999e+01 -2.3494194563557894e+01 0 0 0
2027 0 6 0.0000000000000000e+00 1.2494999999999999e+01 -1.0709999999999999e+01 -2.3494194563557894e+01 0 0 0
2019 0 6 0.0000000000000000e+00 8.9249999999999989e+00 -1.0709999999999999e+01 -2.3494194563557894e+01 0 0 0
1955 0 6 0.0000000000000000e+00 1.6064999999999998e+01 -1.4279999999999999e+01 -2.3494194563557894e+01 0 0 0
1954 0 6 0.0000000000000000e+00 1.4279999999999999e+01 -1.2494999999999999e+01 -2.3494194563557894e+01 0 0 0
1947 0 6 0.0000000000000000e+00 1.2494999999999999e+01 -1.4279999999999999e+01 -2.3494194563557894e+01 0 0 0
1946 0 6 0.0000000000000000e+00 1.0709999999999999e+01 -1.2494999999999999e+01 -2.3494194563557894e+01 0 0 0
1939 0 6 0.0000000000000000e+00 8.9249999999999989e+00 -1.4279999999999999e+01 -2.3494194563557894e+01 0 0 0
1875 0 6 0.0000000000000000e+00 1.6064999999999998e+01 -1.7849999999999998e+01 -2.3494194563557894e+01 0 0 0
1874 0 6 0.0000000000000000e+00 1.4279999999999999e+01 -1.6064999999999998e+01 -2.3494194563557894e+01 0 0 0
1867 0 6 0.0000000000000000e+00 1.2494999999999999e+01 -1.7849999999999998e+01 -2.3494194563557894e+01 0 0 0
1866 0 6 0.0000000000000000e+00 1.0709999999999999e+01 -1.6064999999999998e+01 -2.3494194563557894e+01 0 0 0
1859 0 6 0.0000000000000000e+00 8.9249999999999989e+00 -1.7849999999999998e+01 -2.3494194563557894e+01 0 0 0
1964 0 6 0.0000000000000000e+00 -1.6064999999999998e+01 -8.9249999999999989e+00 -2.5279194563557912e+01 0 0 0
1972 0 6 0.0000000000000000e+00 -1.2494999999999999e+01 -8.9249999999999989e+00 -2.5279194563557912e+01 0 0 0
2041 0 6 0.0000000000000000e+00 -1.7849999999999998e+01 -7.1399999999999997e+00 -2.5279194563557912e+01 0 0 0
2044 0 6 0.0000000000000000e+00 -1.6064999999999998e+01 -5.3549999999999995e+00 -2.5279194563557912e+01 0 0 0
2049 0 6 0.0000000000000000e+00 -1.4279999999999999e+01 -7.1399999999999997e+00 -2.5279194563557912e+01 0 0 0
2052 0 6 0.0000000000000000e+00 -1.2494999999999999e+01 -5.3549999999999995e+00 -2.5279194563557912e+01 0 0 0
2057 0 6 0.0000000000000000e+00 -1.0709999999999999e+01 -7.1399999999999997e+00 -2.5279194563557912e+01 0 0 0
2121 0 6 0.0000000000000000e+00 -1.7849999999999998e+01 -3.5699999999999998e+00 -2.5279194563557912e+01 0 0 0
2124 0 6 0.0000000000000000e+00 -1.6064999999999998e+01 -1.7849999999999999e+00 -2.5279194563557912e+01 0 0 0
2129 0 6 0.0000000000000000e+00 -1.4279999999999999e+01 -3.5699999999999998e+00 -2.5279194563557912e+01 0 0 0
2132 0 6 0.0000000000000000e+00 -1.2494999999999999e+01 -1.7849999999999999e+00 -2.5279194563557912e+01 0 0 0
2137 0 6 0.0000000000000000e+00 -1.0709999999999999e+01 -3.5699999999999998e+00 -2.5279194563557912e+01 0 0 0
1968 0 6 0.0000000000000000e+00 -1.5172499999999999e+01 -8.0324999999999989e+00 -2.4386694563557857e+01 0 0 0
1976 0 6 0.0000000000000000e+00 -1.1602499999999999e+01 -8.0324999999999989e+00 -2.4386694563557857e+01 0 0 0
2045 0 6 0.0000000000000000e+00 -1.6957500000000000e+01 -6.2474999999999996e+00 -2.4386694563557857e+01 0 0 0
2048 0 6 0.0000000000000000e+00 -1.5172499999999999e+01 -4.4624999999999995e+00 -2.4386694563557857e+01 0 0 0
2053 0 6 0.0000000000000000e+00 -1.3387499999999999e+01 -6.2474999999999996e+00 -2.4386694563557857e+01 0 0 0
2056 0 6 0.0000000000000000e+00 -1.1602499999999999e+01 -4.4624999999999995e+00 -2.4386694563557857e+01 0 0 0
2061 0 6 0.0000000000000000e+00 -9.8174999999999990e+00 -6.2474999999999996e+00 -2.4386694563557857e+01 0 0 0
2125 0 6 0.0000000000000000e+00 -1.6957500000000000e+01 -2.6774999999999998e+00 -2.4386694563557857e+01 0 0 0
2128 0 6 0.0000000000000000e+00 -1.5172499999999999e+01 -8.9249999999999996e-01 -2.4386694563557857e+01 0 0 0
2133 0 6 0.0000000000000000e+00 -1.3387499999999999e+01 -2.6774999999999998e+00 -2.4386694563557857e+01 0 0 0
2136 0 6 0.0000000000000000e+00 -1.1602499999999999e+01 -8.9249999999999996e-01 -2.4386694563557857e+01 0 0 0
2141 0 6 0.0000000000000000e+00 -9.8174999999999990e+00 -2.6774999999999998e+00 -2.4386694563557857e+01 0 0 0
2138 0 6 0.0000000000000000e+00 -1.0709999999999999e+01 -1.7849999999999999e+00 -2.3494194563557894e+01 0 0 0
2131 0 6 0.0000000000000000e+00 -1.2494999999999999e+01 -3.5699999999999998e+00 -2.3494194563557894e+01 0 0 0
2130 0 6 0.0000000000000000e+00 -1.4279999999999999e+01 -1.7849999999999999e+00 -2.3494194563557894e+01 0 0 0
2123 0 6 0.0000000000000000e+00 -1.6064999999999998e+01 -3.5699999999999998e+00 -2.3494194563557894e+01 0 0 0
2122 0 6 0.0000000000000000e+00 -1.7849999999999998e+01 -1.7849999999999999e+00 -2.3494194563557894e+01 0 0 0
2058 0 6 0.0000000000000000e+00 -1.0709999999999999e+01 -5.3549999999999995e+00 -2.3494194563557894e+01 0 0 0
2051 0 6 0.0000000000000000e+00 -1.2494999999999999e+01 -7.1399999999999997e+00 -2.3494194563557894e+01 0 0 0
2050 0 6 0.0000000000000000e+00 -1.4279999999999999e+01 -5.3549999999999995e+00 -2.3494194563557894e+01 0 0 0
2043 0 6 0.0000000000000000e+00 -1.6064999999999998e+01 -7.1399999999999997e+00 -2.3494194563557894e+01 0 0 0
2042 0 6 0.0000000000000000e+00 -1.7849999999999998e+01 -5.3549999999999995e+00 -2.3494194563557894e+01 0 0 0
1978 0 6 0.0000000000000000e+00 -1.0709999999999999e+01 -8.9249999999999989e+00 -2.3494194563557894e+01 0 0 0
1970 0 6 0.0000000000000000e+00 -1.4279999999999999e+01 -8.9249999999999989e+00 -2.3494194563557894e+01 0 0 0
1962 0 6 0.0000000000000000e+00 -1.7849999999999998e+01 -8.9249999999999989e+00 -2.3494194563557894e+01 0 0 0
1980 0 6 0.0000000000000000e+00 -8.9249999999999989e+00 -8.9249999999999989e+00 -2.5279194563557912e+01 0 0 0
1988 0 6 0.0000000000000000e+00 -5.3549999999999995e+00 -8.9249999999999989e+00 -2.5279194563557912e+01 0 0 0
1996 0 6 0.0000000000000000e+00 -1.7849999999999999e+00 -8.9249999999999989e+00 -2.5279194563557912e+01 0 0 0
2060 0 6 0.0000000000000000e+00 -8.9249999999999989e+00 -5.3549999999999995e+00 -2.5279194563557912e+01 0 0 0
2065 0 6 0.0000000000000000e+00 -7.1399999999999997e+00 -7.1399999999999997e+00 -2.5279194563557912e+01 0 0 0
2068 0 6 0.0000000000000000e+00 -5.3549999999999995e+00 -5.3549999999999995e+00 -2.5279194563557912e+01 0 0 0
2073 0 6 0.0000000000000000e+00 -3.5699999999999998e+00 -7.1399999999999997e+00 -2.5279194563557912e+01 0 0 0
2076 0 6 0.0000000000000000e+00 -1.7849999999999999e+00 -5.3549999999999995e+00 -2.5279194563557912e+01 0 0 0
2140 0 6 0.0000000000000000e+00 -8.9249999999999989e+00 -1.7849999999999999e+00 -2.5279194563557912e+01 0 0 0
2145 0 6 0.0000000000000000e+00 -7.1399999999999997e+00 -3.5699999999999998e+00 -2.5279194563557912e+01 0 0 0
2148 0 6 0.0000000000000000e+00 -5.3549999999999995e+00 -1.7849999999999999e+00 -2.5279194563557912e+01 0 0 0
2153 0 6 0.0000000000000000e+00 -3.5699999999999998e+00 -3.5699999999999998e+00 -2.5279194563557912e+01 0 0 0
2156 0 6 0.0000000000000000e+00 -1.7849999999999999e+00 -1.7849999999999999e+00 -2.5279194563557912e+01 0 0 0
1984 0 6 0.0000000000000000e+00 -8.0324999999999989e+00 -8.0324999999999989e+00 -2.4386694563557857e+01 0 0 0
1992 0 6 0.0000000000000000e+00 -4.4624999999999995e+00 -8.0324999999999989e+00 -2.4386694563557857e+01 0 0 0
2000 0 6 0.0000000000000000e+00 -8.9249999999999996e-01 -8.0324999999999989e+00 -2.4386694563557857e+01 0 0 0
2064 0 6 0.0000000000000000e+00 -8.0324999999999989e+00 -4.4624999999999995e+00 -2.4386694563557857e+01 0 0 0
2069 0 6 0.0000000000000000e+00 -6.2474999999999996e+00 -6.2474999999999996e+00 -2.4386694563557857e+01 0 0 0
2072 0 6 0.0000000000000000e+00 -4.4624999999999995e+00 -4.4624999999999995e+00 -2.4386694563557857e+01 0 0 0
2077 0 6 0.0000000000000000e+00 -2.6774999999999998e+00 -6.2474999999999996e+00 -2.4386694563557857e+01 0 0 0
2080 0 6 0.0000000000000000e+00 -8.9249999999999996e-01 -4.4624999999999995e+00 -2.4386694563557857e+01 0 0 0
2144 0 6 0.0000000000000000e+00 -8.0324999999999989e+00 -8.9249999999999996e-01 -2.4386694563557857e+01 0 0 0
2149 0 6 0.0000000000000000e+00 -6.2474999999999996e+00 -2.6774999999999998e+00 -2.4386694563557857e+01 0 0 0
2152 0 6 0.0000000000000000e+00 -4.4624999999999995e+00 -8.9249999999999996e-01 -2.4386694563557857e+01 0 0 0
2157 0 6 0.0000000000000000e+00 -2.6774999999999998e+00 -2.6774999999999998e+00 -2.4386694563557857e+01 0 0 0
2160 0 6 0.0000000000000000e+00 -8.9249999999999996e-01 -8.9249999999999996e-01 -2.4386694563557857e+01 0 0 0
2155 0 6 0.0000000000000000e+00 -1.7849999999999999e+00 -3.5699999999999998e+00 -2.3494194563557894e+01 0 0 0
2154 0 6 0.0000000000000000e+00 -3.5699999999999998e+00 -1.7849999999999999e+00 -2.3494194563557894e+01 0 0 0
2147 0 6 0.0000000000000000e+00 -5.3549999999999995e+00 -3.5699999999999998e+00 -2.3494194563557894e+01 0 0 0
2146 0 6 0.0000000000000000e+00 -7.1399999999999997e+00 -1.7849999999999999e+00 -2.3494194563557894e+01 0 0 0
2139 0 6 0.0000000000000000e+00 -8.9249999999999989e+00 -3.5699999999999998e+00 -2.3494194563557894e+01 0 0 0
2075 0 6 0.0000000000000000e+00 -1.7849999999999999e+00 -7.1399999999999997e+00 -2.3494194563557894e+01 0 0 0
2074 0 6 0.0000000000000000e+00 -3.5699999999999998e+00 -5.3549999999999995e+00 -2.3494194563557894e+01 0 0 0
2067 0 6 0.0000000000000000e+00 -5.3549999999999995e+00 -7.1399999999999997e+00 -2.3494194563557894e+01 0 0 0
2066 0 6 0.0000000000000000e+00 -7.1399999999999997e+00 -5.3549999999999995e+00 -2.3494194563557894e+01 0 0 0
2059 0 6 0.0000000000000000e+00 -8.9249999999999989e+00 -7.1399999999999997e+00 -2.3494194563557894e+01 0 0 0
1994 0 6 0.0000000000000000e+00 -3.5699999999999998e+00 -8.9249999999999989e+00 -2.3494194563557894e+01 0 0 0
1986 0 6 0.0000000000000000e+00 -7.1399999999999997e+00 -8.9249999999999989e+00 -2.3494194563557894e+01 0 0 0
2004 0 6 0.0000000000000000e+00 1.7849999999999999e+00 -8.9249999999999989e+00 -2.5279194563557912e+01 0 0 0
2012 0 6 0.0000000000000000e+00 5.3549999999999995e+00 -8.9249999999999989e+00 -2.5279194563557912e+01 0 0 0
2081 0 6 0.0000000000000000e+00 0.0000000000000000e+00 -7.1399999999999997e+00 -2.5279194563557912e+01 0 0 0
2084 0 6 0.0000000000000000e+00 1.7849999999999999e+00 -5.3549999999999995e+00 -2.5279194563557912e+01 0 0 0
2089 0 6 0.0000000000000000e+00 3.5699999999999998e+00 -7.1399999999999997e+00 -2.5279194563557912e+01 0 0 0
2092 0 6 0.0000000000000000e+00 5.3549999999999995e+00 -5.3549999999999995e+00 -2.5279194563557912e+01 0 0 0
2097 0 6 0.0000000000000000e+00 7.1399999999999997e+00 -7.1399999999999997e+00 -2.5279194563557912e+01 0 0 0
2161 0 6 0.0000000000000000e+00 0.0000000000000000e+00 -3.5699999999999998e+00 -2.5279194563557912e+01 0 0 0
2164 0 6 0.0000000000000000e+00 1.7849999999999999e+00 -1.7849999999999999e+00 -2.5279194563557912e+01 0 0 0
2169 0 6 0.0000000000000000e+00 3.5699999999999998e+00 -3.5699999999999998e+00 -2.5279194563557912e+01 0 0 0
2172 0 6 0.0000000000000000e+00 5.3549999999999995e+00 -1.7849999999999999e+00 -2.5279194563557912e+01 0 0 0
2177 0 6 0.0000000000000000e+00 7.1399999999999997e+00 -3.5699999999999998e+00 -2.5279194563557912e+01 0 0 0
2008 0 6 0.0000000000000000e+00 2.6774999999999998e+00 -8.0324999999999989e+00 -2.4386694563557857e+01 0 0 0
2016 0 6 0.0000000000000000e+00 6.2474999999999996e+00 -8.0324999999999989e+00 -2.4386694563557857e+01 0 0 0
2085 0 6 0.0000000000000000e+00 8.9249999999999996e-01 -6.2474999999999996e+00 -2.4386694563557857e+01 0 0 0
2088 0 6 0.0000000000000000e+00 2.6774999999999998e+00 -4.4624999999999995e+00 -2.4386694563557857e+01 0 0 0
2093 0 6 0.0000000000000000e+00 4.4624999999999995e+00 -6.2474999999999996e+00 -2.4386694563557857e+01 0 0 0
2096 0 6 0.0000000000000000e+00 6.2474999999999996e+00 -4.4624999999999995e+00 -2.4386694563557857e+01 0 0 0
2101 0 6 0.0000000000000000e+00 8.0324999999999989e+00 -6.2474999999999996e+00 -2.4386694563557857e+01 0 0 0
2165 0 6 0.0000000000000000e+00 8.9249999999999996e-01 -2.6774999999999998e+00 -2.4386694563557857e+01 0 0 0
2168 0 6 0.0000000000000000e+00 2.6774999999999998e+00 -8.9249999999999996e-01 -2.4386694563557857e+01 0 0 0
2173 0 6 0.0000000000000000e+00 4.4624999999999995e+00 -2.6774999999999998e+00 -2.4386694563557857e+01 0 0 0
2176 0 6 0.0000000000000000e+00 6.2474999999999996e+00 -8.9249999999999996e-01 -2.4386694563557857e+01 0 0 0
2181 0 6 0.0000000000000000e+00 8.0324999999999989e+00 -2.6774999999999998e+00 -2.4386694563557857e+01 0 0 0
2178 0 6 0.0000000000000000e+00 7.1399999999999997e+00 -1.7849999999999999e+00 -2.3494194563557894e+01 0 0 0
2171 0 6 0.0000000000000000e+00 5.3549999999999995e+00 -3.5699999999999998e+00 -2.3494194563557894e+01 0 0 0
2170 0 6 0.0000000000000000e+00 3.5699999999999998e+00 -1.7849999999999999e+00 -2.3494194563557894e+01 0 0 0
2163 0 6 0.0000000000000000e+00 1.7849999999999999e+00 -3.5699999999999998e+00 -2.3494194563557894e+01 0 0 0
2162 0 6 0.0000000000000000e+00 0.0000000000000000e+00 -1.7849999999999999e+00 -2.3494194563557894e+01 0 0 0
2098 0 6 0.0000000000000000e+00 7.1399999999999997e+00 -5.3549999999999995e+00 -2.3494194563557894e+01 0 0 0
2091 0 6 0.0000000000000000e+00 5.3549999999999995e+00 -7.1399999999999997e+00 -2.3494194563557894e+01 0 0 0
2090 0 6 0.0000000000000000e+00 3.5699999999999998e+00 -5.3549999999999995e+00 -2.3494194563557894e+01 0 0 0
2083 0 6 0.0000000000000000e+00 1.7849999999999999e+00 -7.1399999999999997e+00 -2.3494194563557894e+01 0 0 0
2082 0 6 0.0000000000000000e+00 0.0000000000000000e+00 -5.3549999999999995e+00 -2.3494194563557894e+01 0 0 0
2018 0 6 0.0000000000000000e+00 7.1399999999999997e+00 -8.9249999999999989e+00 -2.3494194563557894e+01 0 0 0
2010 0 6 0.0000000000000000e+00 3.5699999999999998e+00 -8.9249999999999989e+00 -2.3494194563557894e+01 0 0 0
2002 0 6 0.0000000000000000e+00 0.0000000000000000e+00 -8.9249999999999989e+00 -2.3494194563557894e+01 0 0 0
2020 0 6 0.0000000000000000e+00 8.9249999999999989e+00 -8.9249999999999989e+00 -2.5279194563557912e+01 0 0 0
2028 0 6 0.0000000000000000e+00 1.2494999999999999e+01 -8.9249999999999989e+00 -2.5279194563557912e+01 0 0 0
2036 0 6 0.0000000000000000e+00 1.6064999999999998e+01 -8.9249999999999989e+00 -2.5279194563557912e+01 0 0 0
2100 0 6 0.0000000000000000e+00 8.9249999999999989e+00 -5.3549999999999995e+00 -2.5279194563557912e+01 0 0 0
2105 0 6 0.0000000000000000e+00 1.0709999999999999e+01 -7.1399999999999997e+00 -2.5279194563557912e+01 0 0 0
2108 0 6 0.0000000000000000e+00 1.2494999999999999e+01 -5.3549999999999995e+00 -2.5279194563557912e+01 0 0 0